File written on  8Jan2020 at 10:01:14 

calc_only_A  :  F

begin real_lattice
   2.2655790   0.0000000   0.0000000
  -1.1327895   1.9620490   0.0000000
   0.0000000   0.0000000   3.5694198
end real_lattice

begin recip_lattice
   2.7733243   1.6011795  -0.0000000
   0.0000000   3.2023591   0.0000000
   0.0000000  -0.0000000   1.7602820
end recip_lattice

begin kpoints
  1728
    0.00000000    0.00000000    0.00000000
    0.00000000    0.00000000    0.08333333
    0.00000000    0.00000000    0.16666667
    0.00000000    0.00000000    0.25000000
    0.00000000    0.00000000    0.33333333
    0.00000000    0.00000000    0.41666667
    0.00000000    0.00000000    0.50000000
    0.00000000    0.00000000    0.58333333
    0.00000000    0.00000000    0.66666667
    0.00000000    0.00000000    0.75000000
    0.00000000    0.00000000    0.83333333
    0.00000000    0.00000000    0.91666667
    0.00000000    0.08333333    0.00000000
    0.00000000    0.08333333    0.08333333
    0.00000000    0.08333333    0.16666667
    0.00000000    0.08333333    0.25000000
    0.00000000    0.08333333    0.33333333
    0.00000000    0.08333333    0.41666667
    0.00000000    0.08333333    0.50000000
    0.00000000    0.08333333    0.58333333
    0.00000000    0.08333333    0.66666667
    0.00000000    0.08333333    0.75000000
    0.00000000    0.08333333    0.83333333
    0.00000000    0.08333333    0.91666667
    0.00000000    0.16666667    0.00000000
    0.00000000    0.16666667    0.08333333
    0.00000000    0.16666667    0.16666667
    0.00000000    0.16666667    0.25000000
    0.00000000    0.16666667    0.33333333
    0.00000000    0.16666667    0.41666667
    0.00000000    0.16666667    0.50000000
    0.00000000    0.16666667    0.58333333
    0.00000000    0.16666667    0.66666667
    0.00000000    0.16666667    0.75000000
    0.00000000    0.16666667    0.83333333
    0.00000000    0.16666667    0.91666667
    0.00000000    0.25000000    0.00000000
    0.00000000    0.25000000    0.08333333
    0.00000000    0.25000000    0.16666667
    0.00000000    0.25000000    0.25000000
    0.00000000    0.25000000    0.33333333
    0.00000000    0.25000000    0.41666667
    0.00000000    0.25000000    0.50000000
    0.00000000    0.25000000    0.58333333
    0.00000000    0.25000000    0.66666667
    0.00000000    0.25000000    0.75000000
    0.00000000    0.25000000    0.83333333
    0.00000000    0.25000000    0.91666667
    0.00000000    0.33333333    0.00000000
    0.00000000    0.33333333    0.08333333
    0.00000000    0.33333333    0.16666667
    0.00000000    0.33333333    0.25000000
    0.00000000    0.33333333    0.33333333
    0.00000000    0.33333333    0.41666667
    0.00000000    0.33333333    0.50000000
    0.00000000    0.33333333    0.58333333
    0.00000000    0.33333333    0.66666667
    0.00000000    0.33333333    0.75000000
    0.00000000    0.33333333    0.83333333
    0.00000000    0.33333333    0.91666667
    0.00000000    0.41666667    0.00000000
    0.00000000    0.41666667    0.08333333
    0.00000000    0.41666667    0.16666667
    0.00000000    0.41666667    0.25000000
    0.00000000    0.41666667    0.33333333
    0.00000000    0.41666667    0.41666667
    0.00000000    0.41666667    0.50000000
    0.00000000    0.41666667    0.58333333
    0.00000000    0.41666667    0.66666667
    0.00000000    0.41666667    0.75000000
    0.00000000    0.41666667    0.83333333
    0.00000000    0.41666667    0.91666667
    0.00000000    0.50000000    0.00000000
    0.00000000    0.50000000    0.08333333
    0.00000000    0.50000000    0.16666667
    0.00000000    0.50000000    0.25000000
    0.00000000    0.50000000    0.33333333
    0.00000000    0.50000000    0.41666667
    0.00000000    0.50000000    0.50000000
    0.00000000    0.50000000    0.58333333
    0.00000000    0.50000000    0.66666667
    0.00000000    0.50000000    0.75000000
    0.00000000    0.50000000    0.83333333
    0.00000000    0.50000000    0.91666667
    0.00000000    0.58333333    0.00000000
    0.00000000    0.58333333    0.08333333
    0.00000000    0.58333333    0.16666667
    0.00000000    0.58333333    0.25000000
    0.00000000    0.58333333    0.33333333
    0.00000000    0.58333333    0.41666667
    0.00000000    0.58333333    0.50000000
    0.00000000    0.58333333    0.58333333
    0.00000000    0.58333333    0.66666667
    0.00000000    0.58333333    0.75000000
    0.00000000    0.58333333    0.83333333
    0.00000000    0.58333333    0.91666667
    0.00000000    0.66666667    0.00000000
    0.00000000    0.66666667    0.08333333
    0.00000000    0.66666667    0.16666667
    0.00000000    0.66666667    0.25000000
    0.00000000    0.66666667    0.33333333
    0.00000000    0.66666667    0.41666667
    0.00000000    0.66666667    0.50000000
    0.00000000    0.66666667    0.58333333
    0.00000000    0.66666667    0.66666667
    0.00000000    0.66666667    0.75000000
    0.00000000    0.66666667    0.83333333
    0.00000000    0.66666667    0.91666667
    0.00000000    0.75000000    0.00000000
    0.00000000    0.75000000    0.08333333
    0.00000000    0.75000000    0.16666667
    0.00000000    0.75000000    0.25000000
    0.00000000    0.75000000    0.33333333
    0.00000000    0.75000000    0.41666667
    0.00000000    0.75000000    0.50000000
    0.00000000    0.75000000    0.58333333
    0.00000000    0.75000000    0.66666667
    0.00000000    0.75000000    0.75000000
    0.00000000    0.75000000    0.83333333
    0.00000000    0.75000000    0.91666667
    0.00000000    0.83333333    0.00000000
    0.00000000    0.83333333    0.08333333
    0.00000000    0.83333333    0.16666667
    0.00000000    0.83333333    0.25000000
    0.00000000    0.83333333    0.33333333
    0.00000000    0.83333333    0.41666667
    0.00000000    0.83333333    0.50000000
    0.00000000    0.83333333    0.58333333
    0.00000000    0.83333333    0.66666667
    0.00000000    0.83333333    0.75000000
    0.00000000    0.83333333    0.83333333
    0.00000000    0.83333333    0.91666667
    0.00000000    0.91666667    0.00000000
    0.00000000    0.91666667    0.08333333
    0.00000000    0.91666667    0.16666667
    0.00000000    0.91666667    0.25000000
    0.00000000    0.91666667    0.33333333
    0.00000000    0.91666667    0.41666667
    0.00000000    0.91666667    0.50000000
    0.00000000    0.91666667    0.58333333
    0.00000000    0.91666667    0.66666667
    0.00000000    0.91666667    0.75000000
    0.00000000    0.91666667    0.83333333
    0.00000000    0.91666667    0.91666667
    0.08333333    0.00000000    0.00000000
    0.08333333    0.00000000    0.08333333
    0.08333333    0.00000000    0.16666667
    0.08333333    0.00000000    0.25000000
    0.08333333    0.00000000    0.33333333
    0.08333333    0.00000000    0.41666667
    0.08333333    0.00000000    0.50000000
    0.08333333    0.00000000    0.58333333
    0.08333333    0.00000000    0.66666667
    0.08333333    0.00000000    0.75000000
    0.08333333    0.00000000    0.83333333
    0.08333333    0.00000000    0.91666667
    0.08333333    0.08333333    0.00000000
    0.08333333    0.08333333    0.08333333
    0.08333333    0.08333333    0.16666667
    0.08333333    0.08333333    0.25000000
    0.08333333    0.08333333    0.33333333
    0.08333333    0.08333333    0.41666667
    0.08333333    0.08333333    0.50000000
    0.08333333    0.08333333    0.58333333
    0.08333333    0.08333333    0.66666667
    0.08333333    0.08333333    0.75000000
    0.08333333    0.08333333    0.83333333
    0.08333333    0.08333333    0.91666667
    0.08333333    0.16666667    0.00000000
    0.08333333    0.16666667    0.08333333
    0.08333333    0.16666667    0.16666667
    0.08333333    0.16666667    0.25000000
    0.08333333    0.16666667    0.33333333
    0.08333333    0.16666667    0.41666667
    0.08333333    0.16666667    0.50000000
    0.08333333    0.16666667    0.58333333
    0.08333333    0.16666667    0.66666667
    0.08333333    0.16666667    0.75000000
    0.08333333    0.16666667    0.83333333
    0.08333333    0.16666667    0.91666667
    0.08333333    0.25000000    0.00000000
    0.08333333    0.25000000    0.08333333
    0.08333333    0.25000000    0.16666667
    0.08333333    0.25000000    0.25000000
    0.08333333    0.25000000    0.33333333
    0.08333333    0.25000000    0.41666667
    0.08333333    0.25000000    0.50000000
    0.08333333    0.25000000    0.58333333
    0.08333333    0.25000000    0.66666667
    0.08333333    0.25000000    0.75000000
    0.08333333    0.25000000    0.83333333
    0.08333333    0.25000000    0.91666667
    0.08333333    0.33333333    0.00000000
    0.08333333    0.33333333    0.08333333
    0.08333333    0.33333333    0.16666667
    0.08333333    0.33333333    0.25000000
    0.08333333    0.33333333    0.33333333
    0.08333333    0.33333333    0.41666667
    0.08333333    0.33333333    0.50000000
    0.08333333    0.33333333    0.58333333
    0.08333333    0.33333333    0.66666667
    0.08333333    0.33333333    0.75000000
    0.08333333    0.33333333    0.83333333
    0.08333333    0.33333333    0.91666667
    0.08333333    0.41666667    0.00000000
    0.08333333    0.41666667    0.08333333
    0.08333333    0.41666667    0.16666667
    0.08333333    0.41666667    0.25000000
    0.08333333    0.41666667    0.33333333
    0.08333333    0.41666667    0.41666667
    0.08333333    0.41666667    0.50000000
    0.08333333    0.41666667    0.58333333
    0.08333333    0.41666667    0.66666667
    0.08333333    0.41666667    0.75000000
    0.08333333    0.41666667    0.83333333
    0.08333333    0.41666667    0.91666667
    0.08333333    0.50000000    0.00000000
    0.08333333    0.50000000    0.08333333
    0.08333333    0.50000000    0.16666667
    0.08333333    0.50000000    0.25000000
    0.08333333    0.50000000    0.33333333
    0.08333333    0.50000000    0.41666667
    0.08333333    0.50000000    0.50000000
    0.08333333    0.50000000    0.58333333
    0.08333333    0.50000000    0.66666667
    0.08333333    0.50000000    0.75000000
    0.08333333    0.50000000    0.83333333
    0.08333333    0.50000000    0.91666667
    0.08333333    0.58333333    0.00000000
    0.08333333    0.58333333    0.08333333
    0.08333333    0.58333333    0.16666667
    0.08333333    0.58333333    0.25000000
    0.08333333    0.58333333    0.33333333
    0.08333333    0.58333333    0.41666667
    0.08333333    0.58333333    0.50000000
    0.08333333    0.58333333    0.58333333
    0.08333333    0.58333333    0.66666667
    0.08333333    0.58333333    0.75000000
    0.08333333    0.58333333    0.83333333
    0.08333333    0.58333333    0.91666667
    0.08333333    0.66666667    0.00000000
    0.08333333    0.66666667    0.08333333
    0.08333333    0.66666667    0.16666667
    0.08333333    0.66666667    0.25000000
    0.08333333    0.66666667    0.33333333
    0.08333333    0.66666667    0.41666667
    0.08333333    0.66666667    0.50000000
    0.08333333    0.66666667    0.58333333
    0.08333333    0.66666667    0.66666667
    0.08333333    0.66666667    0.75000000
    0.08333333    0.66666667    0.83333333
    0.08333333    0.66666667    0.91666667
    0.08333333    0.75000000    0.00000000
    0.08333333    0.75000000    0.08333333
    0.08333333    0.75000000    0.16666667
    0.08333333    0.75000000    0.25000000
    0.08333333    0.75000000    0.33333333
    0.08333333    0.75000000    0.41666667
    0.08333333    0.75000000    0.50000000
    0.08333333    0.75000000    0.58333333
    0.08333333    0.75000000    0.66666667
    0.08333333    0.75000000    0.75000000
    0.08333333    0.75000000    0.83333333
    0.08333333    0.75000000    0.91666667
    0.08333333    0.83333333    0.00000000
    0.08333333    0.83333333    0.08333333
    0.08333333    0.83333333    0.16666667
    0.08333333    0.83333333    0.25000000
    0.08333333    0.83333333    0.33333333
    0.08333333    0.83333333    0.41666667
    0.08333333    0.83333333    0.50000000
    0.08333333    0.83333333    0.58333333
    0.08333333    0.83333333    0.66666667
    0.08333333    0.83333333    0.75000000
    0.08333333    0.83333333    0.83333333
    0.08333333    0.83333333    0.91666667
    0.08333333    0.91666667    0.00000000
    0.08333333    0.91666667    0.08333333
    0.08333333    0.91666667    0.16666667
    0.08333333    0.91666667    0.25000000
    0.08333333    0.91666667    0.33333333
    0.08333333    0.91666667    0.41666667
    0.08333333    0.91666667    0.50000000
    0.08333333    0.91666667    0.58333333
    0.08333333    0.91666667    0.66666667
    0.08333333    0.91666667    0.75000000
    0.08333333    0.91666667    0.83333333
    0.08333333    0.91666667    0.91666667
    0.16666667    0.00000000    0.00000000
    0.16666667    0.00000000    0.08333333
    0.16666667    0.00000000    0.16666667
    0.16666667    0.00000000    0.25000000
    0.16666667    0.00000000    0.33333333
    0.16666667    0.00000000    0.41666667
    0.16666667    0.00000000    0.50000000
    0.16666667    0.00000000    0.58333333
    0.16666667    0.00000000    0.66666667
    0.16666667    0.00000000    0.75000000
    0.16666667    0.00000000    0.83333333
    0.16666667    0.00000000    0.91666667
    0.16666667    0.08333333    0.00000000
    0.16666667    0.08333333    0.08333333
    0.16666667    0.08333333    0.16666667
    0.16666667    0.08333333    0.25000000
    0.16666667    0.08333333    0.33333333
    0.16666667    0.08333333    0.41666667
    0.16666667    0.08333333    0.50000000
    0.16666667    0.08333333    0.58333333
    0.16666667    0.08333333    0.66666667
    0.16666667    0.08333333    0.75000000
    0.16666667    0.08333333    0.83333333
    0.16666667    0.08333333    0.91666667
    0.16666667    0.16666667    0.00000000
    0.16666667    0.16666667    0.08333333
    0.16666667    0.16666667    0.16666667
    0.16666667    0.16666667    0.25000000
    0.16666667    0.16666667    0.33333333
    0.16666667    0.16666667    0.41666667
    0.16666667    0.16666667    0.50000000
    0.16666667    0.16666667    0.58333333
    0.16666667    0.16666667    0.66666667
    0.16666667    0.16666667    0.75000000
    0.16666667    0.16666667    0.83333333
    0.16666667    0.16666667    0.91666667
    0.16666667    0.25000000    0.00000000
    0.16666667    0.25000000    0.08333333
    0.16666667    0.25000000    0.16666667
    0.16666667    0.25000000    0.25000000
    0.16666667    0.25000000    0.33333333
    0.16666667    0.25000000    0.41666667
    0.16666667    0.25000000    0.50000000
    0.16666667    0.25000000    0.58333333
    0.16666667    0.25000000    0.66666667
    0.16666667    0.25000000    0.75000000
    0.16666667    0.25000000    0.83333333
    0.16666667    0.25000000    0.91666667
    0.16666667    0.33333333    0.00000000
    0.16666667    0.33333333    0.08333333
    0.16666667    0.33333333    0.16666667
    0.16666667    0.33333333    0.25000000
    0.16666667    0.33333333    0.33333333
    0.16666667    0.33333333    0.41666667
    0.16666667    0.33333333    0.50000000
    0.16666667    0.33333333    0.58333333
    0.16666667    0.33333333    0.66666667
    0.16666667    0.33333333    0.75000000
    0.16666667    0.33333333    0.83333333
    0.16666667    0.33333333    0.91666667
    0.16666667    0.41666667    0.00000000
    0.16666667    0.41666667    0.08333333
    0.16666667    0.41666667    0.16666667
    0.16666667    0.41666667    0.25000000
    0.16666667    0.41666667    0.33333333
    0.16666667    0.41666667    0.41666667
    0.16666667    0.41666667    0.50000000
    0.16666667    0.41666667    0.58333333
    0.16666667    0.41666667    0.66666667
    0.16666667    0.41666667    0.75000000
    0.16666667    0.41666667    0.83333333
    0.16666667    0.41666667    0.91666667
    0.16666667    0.50000000    0.00000000
    0.16666667    0.50000000    0.08333333
    0.16666667    0.50000000    0.16666667
    0.16666667    0.50000000    0.25000000
    0.16666667    0.50000000    0.33333333
    0.16666667    0.50000000    0.41666667
    0.16666667    0.50000000    0.50000000
    0.16666667    0.50000000    0.58333333
    0.16666667    0.50000000    0.66666667
    0.16666667    0.50000000    0.75000000
    0.16666667    0.50000000    0.83333333
    0.16666667    0.50000000    0.91666667
    0.16666667    0.58333333    0.00000000
    0.16666667    0.58333333    0.08333333
    0.16666667    0.58333333    0.16666667
    0.16666667    0.58333333    0.25000000
    0.16666667    0.58333333    0.33333333
    0.16666667    0.58333333    0.41666667
    0.16666667    0.58333333    0.50000000
    0.16666667    0.58333333    0.58333333
    0.16666667    0.58333333    0.66666667
    0.16666667    0.58333333    0.75000000
    0.16666667    0.58333333    0.83333333
    0.16666667    0.58333333    0.91666667
    0.16666667    0.66666667    0.00000000
    0.16666667    0.66666667    0.08333333
    0.16666667    0.66666667    0.16666667
    0.16666667    0.66666667    0.25000000
    0.16666667    0.66666667    0.33333333
    0.16666667    0.66666667    0.41666667
    0.16666667    0.66666667    0.50000000
    0.16666667    0.66666667    0.58333333
    0.16666667    0.66666667    0.66666667
    0.16666667    0.66666667    0.75000000
    0.16666667    0.66666667    0.83333333
    0.16666667    0.66666667    0.91666667
    0.16666667    0.75000000    0.00000000
    0.16666667    0.75000000    0.08333333
    0.16666667    0.75000000    0.16666667
    0.16666667    0.75000000    0.25000000
    0.16666667    0.75000000    0.33333333
    0.16666667    0.75000000    0.41666667
    0.16666667    0.75000000    0.50000000
    0.16666667    0.75000000    0.58333333
    0.16666667    0.75000000    0.66666667
    0.16666667    0.75000000    0.75000000
    0.16666667    0.75000000    0.83333333
    0.16666667    0.75000000    0.91666667
    0.16666667    0.83333333    0.00000000
    0.16666667    0.83333333    0.08333333
    0.16666667    0.83333333    0.16666667
    0.16666667    0.83333333    0.25000000
    0.16666667    0.83333333    0.33333333
    0.16666667    0.83333333    0.41666667
    0.16666667    0.83333333    0.50000000
    0.16666667    0.83333333    0.58333333
    0.16666667    0.83333333    0.66666667
    0.16666667    0.83333333    0.75000000
    0.16666667    0.83333333    0.83333333
    0.16666667    0.83333333    0.91666667
    0.16666667    0.91666667    0.00000000
    0.16666667    0.91666667    0.08333333
    0.16666667    0.91666667    0.16666667
    0.16666667    0.91666667    0.25000000
    0.16666667    0.91666667    0.33333333
    0.16666667    0.91666667    0.41666667
    0.16666667    0.91666667    0.50000000
    0.16666667    0.91666667    0.58333333
    0.16666667    0.91666667    0.66666667
    0.16666667    0.91666667    0.75000000
    0.16666667    0.91666667    0.83333333
    0.16666667    0.91666667    0.91666667
    0.25000000   -0.00000000    0.00000000
    0.25000000   -0.00000000    0.08333333
    0.25000000   -0.00000000    0.16666667
    0.25000000   -0.00000000    0.25000000
    0.25000000   -0.00000000    0.33333333
    0.25000000   -0.00000000    0.41666667
    0.25000000   -0.00000000    0.50000000
    0.25000000   -0.00000000    0.58333333
    0.25000000   -0.00000000    0.66666667
    0.25000000   -0.00000000    0.75000000
    0.25000000   -0.00000000    0.83333333
    0.25000000   -0.00000000    0.91666667
    0.25000000    0.08333333    0.00000000
    0.25000000    0.08333333    0.08333333
    0.25000000    0.08333333    0.16666667
    0.25000000    0.08333333    0.25000000
    0.25000000    0.08333333    0.33333333
    0.25000000    0.08333333    0.41666667
    0.25000000    0.08333333    0.50000000
    0.25000000    0.08333333    0.58333333
    0.25000000    0.08333333    0.66666667
    0.25000000    0.08333333    0.75000000
    0.25000000    0.08333333    0.83333333
    0.25000000    0.08333333    0.91666667
    0.25000000    0.16666667    0.00000000
    0.25000000    0.16666667    0.08333333
    0.25000000    0.16666667    0.16666667
    0.25000000    0.16666667    0.25000000
    0.25000000    0.16666667    0.33333333
    0.25000000    0.16666667    0.41666667
    0.25000000    0.16666667    0.50000000
    0.25000000    0.16666667    0.58333333
    0.25000000    0.16666667    0.66666667
    0.25000000    0.16666667    0.75000000
    0.25000000    0.16666667    0.83333333
    0.25000000    0.16666667    0.91666667
    0.25000000    0.25000000    0.00000000
    0.25000000    0.25000000    0.08333333
    0.25000000    0.25000000    0.16666667
    0.25000000    0.25000000    0.25000000
    0.25000000    0.25000000    0.33333333
    0.25000000    0.25000000    0.41666667
    0.25000000    0.25000000    0.50000000
    0.25000000    0.25000000    0.58333333
    0.25000000    0.25000000    0.66666667
    0.25000000    0.25000000    0.75000000
    0.25000000    0.25000000    0.83333333
    0.25000000    0.25000000    0.91666667
    0.25000000    0.33333333    0.00000000
    0.25000000    0.33333333    0.08333333
    0.25000000    0.33333333    0.16666667
    0.25000000    0.33333333    0.25000000
    0.25000000    0.33333333    0.33333333
    0.25000000    0.33333333    0.41666667
    0.25000000    0.33333333    0.50000000
    0.25000000    0.33333333    0.58333333
    0.25000000    0.33333333    0.66666667
    0.25000000    0.33333333    0.75000000
    0.25000000    0.33333333    0.83333333
    0.25000000    0.33333333    0.91666667
    0.25000000    0.41666667    0.00000000
    0.25000000    0.41666667    0.08333333
    0.25000000    0.41666667    0.16666667
    0.25000000    0.41666667    0.25000000
    0.25000000    0.41666667    0.33333333
    0.25000000    0.41666667    0.41666667
    0.25000000    0.41666667    0.50000000
    0.25000000    0.41666667    0.58333333
    0.25000000    0.41666667    0.66666667
    0.25000000    0.41666667    0.75000000
    0.25000000    0.41666667    0.83333333
    0.25000000    0.41666667    0.91666667
    0.25000000    0.50000000    0.00000000
    0.25000000    0.50000000    0.08333333
    0.25000000    0.50000000    0.16666667
    0.25000000    0.50000000    0.25000000
    0.25000000    0.50000000    0.33333333
    0.25000000    0.50000000    0.41666667
    0.25000000    0.50000000    0.50000000
    0.25000000    0.50000000    0.58333333
    0.25000000    0.50000000    0.66666667
    0.25000000    0.50000000    0.75000000
    0.25000000    0.50000000    0.83333333
    0.25000000    0.50000000    0.91666667
    0.25000000    0.58333333    0.00000000
    0.25000000    0.58333333    0.08333333
    0.25000000    0.58333333    0.16666667
    0.25000000    0.58333333    0.25000000
    0.25000000    0.58333333    0.33333333
    0.25000000    0.58333333    0.41666667
    0.25000000    0.58333333    0.50000000
    0.25000000    0.58333333    0.58333333
    0.25000000    0.58333333    0.66666667
    0.25000000    0.58333333    0.75000000
    0.25000000    0.58333333    0.83333333
    0.25000000    0.58333333    0.91666667
    0.25000000    0.66666667    0.00000000
    0.25000000    0.66666667    0.08333333
    0.25000000    0.66666667    0.16666667
    0.25000000    0.66666667    0.25000000
    0.25000000    0.66666667    0.33333333
    0.25000000    0.66666667    0.41666667
    0.25000000    0.66666667    0.50000000
    0.25000000    0.66666667    0.58333333
    0.25000000    0.66666667    0.66666667
    0.25000000    0.66666667    0.75000000
    0.25000000    0.66666667    0.83333333
    0.25000000    0.66666667    0.91666667
    0.25000000    0.75000000    0.00000000
    0.25000000    0.75000000    0.08333333
    0.25000000    0.75000000    0.16666667
    0.25000000    0.75000000    0.25000000
    0.25000000    0.75000000    0.33333333
    0.25000000    0.75000000    0.41666667
    0.25000000    0.75000000    0.50000000
    0.25000000    0.75000000    0.58333333
    0.25000000    0.75000000    0.66666667
    0.25000000    0.75000000    0.75000000
    0.25000000    0.75000000    0.83333333
    0.25000000    0.75000000    0.91666667
    0.25000000    0.83333333    0.00000000
    0.25000000    0.83333333    0.08333333
    0.25000000    0.83333333    0.16666667
    0.25000000    0.83333333    0.25000000
    0.25000000    0.83333333    0.33333333
    0.25000000    0.83333333    0.41666667
    0.25000000    0.83333333    0.50000000
    0.25000000    0.83333333    0.58333333
    0.25000000    0.83333333    0.66666667
    0.25000000    0.83333333    0.75000000
    0.25000000    0.83333333    0.83333333
    0.25000000    0.83333333    0.91666667
    0.25000000    0.91666667    0.00000000
    0.25000000    0.91666667    0.08333333
    0.25000000    0.91666667    0.16666667
    0.25000000    0.91666667    0.25000000
    0.25000000    0.91666667    0.33333333
    0.25000000    0.91666667    0.41666667
    0.25000000    0.91666667    0.50000000
    0.25000000    0.91666667    0.58333333
    0.25000000    0.91666667    0.66666667
    0.25000000    0.91666667    0.75000000
    0.25000000    0.91666667    0.83333333
    0.25000000    0.91666667    0.91666667
    0.33333333    0.00000000    0.00000000
    0.33333333    0.00000000    0.08333333
    0.33333333    0.00000000    0.16666667
    0.33333333    0.00000000    0.25000000
    0.33333333    0.00000000    0.33333333
    0.33333333    0.00000000    0.41666667
    0.33333333    0.00000000    0.50000000
    0.33333333    0.00000000    0.58333333
    0.33333333    0.00000000    0.66666667
    0.33333333    0.00000000    0.75000000
    0.33333333    0.00000000    0.83333333
    0.33333333    0.00000000    0.91666667
    0.33333333    0.08333333    0.00000000
    0.33333333    0.08333333    0.08333333
    0.33333333    0.08333333    0.16666667
    0.33333333    0.08333333    0.25000000
    0.33333333    0.08333333    0.33333333
    0.33333333    0.08333333    0.41666667
    0.33333333    0.08333333    0.50000000
    0.33333333    0.08333333    0.58333333
    0.33333333    0.08333333    0.66666667
    0.33333333    0.08333333    0.75000000
    0.33333333    0.08333333    0.83333333
    0.33333333    0.08333333    0.91666667
    0.33333333    0.16666667    0.00000000
    0.33333333    0.16666667    0.08333333
    0.33333333    0.16666667    0.16666667
    0.33333333    0.16666667    0.25000000
    0.33333333    0.16666667    0.33333333
    0.33333333    0.16666667    0.41666667
    0.33333333    0.16666667    0.50000000
    0.33333333    0.16666667    0.58333333
    0.33333333    0.16666667    0.66666667
    0.33333333    0.16666667    0.75000000
    0.33333333    0.16666667    0.83333333
    0.33333333    0.16666667    0.91666667
    0.33333333    0.25000000    0.00000000
    0.33333333    0.25000000    0.08333333
    0.33333333    0.25000000    0.16666667
    0.33333333    0.25000000    0.25000000
    0.33333333    0.25000000    0.33333333
    0.33333333    0.25000000    0.41666667
    0.33333333    0.25000000    0.50000000
    0.33333333    0.25000000    0.58333333
    0.33333333    0.25000000    0.66666667
    0.33333333    0.25000000    0.75000000
    0.33333333    0.25000000    0.83333333
    0.33333333    0.25000000    0.91666667
    0.33333333    0.33333333    0.00000000
    0.33333333    0.33333333    0.08333333
    0.33333333    0.33333333    0.16666667
    0.33333333    0.33333333    0.25000000
    0.33333333    0.33333333    0.33333333
    0.33333333    0.33333333    0.41666667
    0.33333333    0.33333333    0.50000000
    0.33333333    0.33333333    0.58333333
    0.33333333    0.33333333    0.66666667
    0.33333333    0.33333333    0.75000000
    0.33333333    0.33333333    0.83333333
    0.33333333    0.33333333    0.91666667
    0.33333333    0.41666667    0.00000000
    0.33333333    0.41666667    0.08333333
    0.33333333    0.41666667    0.16666667
    0.33333333    0.41666667    0.25000000
    0.33333333    0.41666667    0.33333333
    0.33333333    0.41666667    0.41666667
    0.33333333    0.41666667    0.50000000
    0.33333333    0.41666667    0.58333333
    0.33333333    0.41666667    0.66666667
    0.33333333    0.41666667    0.75000000
    0.33333333    0.41666667    0.83333333
    0.33333333    0.41666667    0.91666667
    0.33333333    0.50000000    0.00000000
    0.33333333    0.50000000    0.08333333
    0.33333333    0.50000000    0.16666667
    0.33333333    0.50000000    0.25000000
    0.33333333    0.50000000    0.33333333
    0.33333333    0.50000000    0.41666667
    0.33333333    0.50000000    0.50000000
    0.33333333    0.50000000    0.58333333
    0.33333333    0.50000000    0.66666667
    0.33333333    0.50000000    0.75000000
    0.33333333    0.50000000    0.83333333
    0.33333333    0.50000000    0.91666667
    0.33333333    0.58333333    0.00000000
    0.33333333    0.58333333    0.08333333
    0.33333333    0.58333333    0.16666667
    0.33333333    0.58333333    0.25000000
    0.33333333    0.58333333    0.33333333
    0.33333333    0.58333333    0.41666667
    0.33333333    0.58333333    0.50000000
    0.33333333    0.58333333    0.58333333
    0.33333333    0.58333333    0.66666667
    0.33333333    0.58333333    0.75000000
    0.33333333    0.58333333    0.83333333
    0.33333333    0.58333333    0.91666667
    0.33333333    0.66666667    0.00000000
    0.33333333    0.66666667    0.08333333
    0.33333333    0.66666667    0.16666667
    0.33333333    0.66666667    0.25000000
    0.33333333    0.66666667    0.33333333
    0.33333333    0.66666667    0.41666667
    0.33333333    0.66666667    0.50000000
    0.33333333    0.66666667    0.58333333
    0.33333333    0.66666667    0.66666667
    0.33333333    0.66666667    0.75000000
    0.33333333    0.66666667    0.83333333
    0.33333333    0.66666667    0.91666667
    0.33333333    0.75000000    0.00000000
    0.33333333    0.75000000    0.08333333
    0.33333333    0.75000000    0.16666667
    0.33333333    0.75000000    0.25000000
    0.33333333    0.75000000    0.33333333
    0.33333333    0.75000000    0.41666667
    0.33333333    0.75000000    0.50000000
    0.33333333    0.75000000    0.58333333
    0.33333333    0.75000000    0.66666667
    0.33333333    0.75000000    0.75000000
    0.33333333    0.75000000    0.83333333
    0.33333333    0.75000000    0.91666667
    0.33333333    0.83333333    0.00000000
    0.33333333    0.83333333    0.08333333
    0.33333333    0.83333333    0.16666667
    0.33333333    0.83333333    0.25000000
    0.33333333    0.83333333    0.33333333
    0.33333333    0.83333333    0.41666667
    0.33333333    0.83333333    0.50000000
    0.33333333    0.83333333    0.58333333
    0.33333333    0.83333333    0.66666667
    0.33333333    0.83333333    0.75000000
    0.33333333    0.83333333    0.83333333
    0.33333333    0.83333333    0.91666667
    0.33333333    0.91666667    0.00000000
    0.33333333    0.91666667    0.08333333
    0.33333333    0.91666667    0.16666667
    0.33333333    0.91666667    0.25000000
    0.33333333    0.91666667    0.33333333
    0.33333333    0.91666667    0.41666667
    0.33333333    0.91666667    0.50000000
    0.33333333    0.91666667    0.58333333
    0.33333333    0.91666667    0.66666667
    0.33333333    0.91666667    0.75000000
    0.33333333    0.91666667    0.83333333
    0.33333333    0.91666667    0.91666667
    0.41666667    0.00000000    0.00000000
    0.41666667    0.00000000    0.08333333
    0.41666667    0.00000000    0.16666667
    0.41666667    0.00000000    0.25000000
    0.41666667    0.00000000    0.33333333
    0.41666667    0.00000000    0.41666667
    0.41666667    0.00000000    0.50000000
    0.41666667    0.00000000    0.58333333
    0.41666667    0.00000000    0.66666667
    0.41666667    0.00000000    0.75000000
    0.41666667    0.00000000    0.83333333
    0.41666667    0.00000000    0.91666667
    0.41666667    0.08333333    0.00000000
    0.41666667    0.08333333    0.08333333
    0.41666667    0.08333333    0.16666667
    0.41666667    0.08333333    0.25000000
    0.41666667    0.08333333    0.33333333
    0.41666667    0.08333333    0.41666667
    0.41666667    0.08333333    0.50000000
    0.41666667    0.08333333    0.58333333
    0.41666667    0.08333333    0.66666667
    0.41666667    0.08333333    0.75000000
    0.41666667    0.08333333    0.83333333
    0.41666667    0.08333333    0.91666667
    0.41666667    0.16666667    0.00000000
    0.41666667    0.16666667    0.08333333
    0.41666667    0.16666667    0.16666667
    0.41666667    0.16666667    0.25000000
    0.41666667    0.16666667    0.33333333
    0.41666667    0.16666667    0.41666667
    0.41666667    0.16666667    0.50000000
    0.41666667    0.16666667    0.58333333
    0.41666667    0.16666667    0.66666667
    0.41666667    0.16666667    0.75000000
    0.41666667    0.16666667    0.83333333
    0.41666667    0.16666667    0.91666667
    0.41666667    0.25000000    0.00000000
    0.41666667    0.25000000    0.08333333
    0.41666667    0.25000000    0.16666667
    0.41666667    0.25000000    0.25000000
    0.41666667    0.25000000    0.33333333
    0.41666667    0.25000000    0.41666667
    0.41666667    0.25000000    0.50000000
    0.41666667    0.25000000    0.58333333
    0.41666667    0.25000000    0.66666667
    0.41666667    0.25000000    0.75000000
    0.41666667    0.25000000    0.83333333
    0.41666667    0.25000000    0.91666667
    0.41666667    0.33333333    0.00000000
    0.41666667    0.33333333    0.08333333
    0.41666667    0.33333333    0.16666667
    0.41666667    0.33333333    0.25000000
    0.41666667    0.33333333    0.33333333
    0.41666667    0.33333333    0.41666667
    0.41666667    0.33333333    0.50000000
    0.41666667    0.33333333    0.58333333
    0.41666667    0.33333333    0.66666667
    0.41666667    0.33333333    0.75000000
    0.41666667    0.33333333    0.83333333
    0.41666667    0.33333333    0.91666667
    0.41666667    0.41666667    0.00000000
    0.41666667    0.41666667    0.08333333
    0.41666667    0.41666667    0.16666667
    0.41666667    0.41666667    0.25000000
    0.41666667    0.41666667    0.33333333
    0.41666667    0.41666667    0.41666667
    0.41666667    0.41666667    0.50000000
    0.41666667    0.41666667    0.58333333
    0.41666667    0.41666667    0.66666667
    0.41666667    0.41666667    0.75000000
    0.41666667    0.41666667    0.83333333
    0.41666667    0.41666667    0.91666667
    0.41666667    0.50000000    0.00000000
    0.41666667    0.50000000    0.08333333
    0.41666667    0.50000000    0.16666667
    0.41666667    0.50000000    0.25000000
    0.41666667    0.50000000    0.33333333
    0.41666667    0.50000000    0.41666667
    0.41666667    0.50000000    0.50000000
    0.41666667    0.50000000    0.58333333
    0.41666667    0.50000000    0.66666667
    0.41666667    0.50000000    0.75000000
    0.41666667    0.50000000    0.83333333
    0.41666667    0.50000000    0.91666667
    0.41666667    0.58333333    0.00000000
    0.41666667    0.58333333    0.08333333
    0.41666667    0.58333333    0.16666667
    0.41666667    0.58333333    0.25000000
    0.41666667    0.58333333    0.33333333
    0.41666667    0.58333333    0.41666667
    0.41666667    0.58333333    0.50000000
    0.41666667    0.58333333    0.58333333
    0.41666667    0.58333333    0.66666667
    0.41666667    0.58333333    0.75000000
    0.41666667    0.58333333    0.83333333
    0.41666667    0.58333333    0.91666667
    0.41666667    0.66666667    0.00000000
    0.41666667    0.66666667    0.08333333
    0.41666667    0.66666667    0.16666667
    0.41666667    0.66666667    0.25000000
    0.41666667    0.66666667    0.33333333
    0.41666667    0.66666667    0.41666667
    0.41666667    0.66666667    0.50000000
    0.41666667    0.66666667    0.58333333
    0.41666667    0.66666667    0.66666667
    0.41666667    0.66666667    0.75000000
    0.41666667    0.66666667    0.83333333
    0.41666667    0.66666667    0.91666667
    0.41666667    0.75000000    0.00000000
    0.41666667    0.75000000    0.08333333
    0.41666667    0.75000000    0.16666667
    0.41666667    0.75000000    0.25000000
    0.41666667    0.75000000    0.33333333
    0.41666667    0.75000000    0.41666667
    0.41666667    0.75000000    0.50000000
    0.41666667    0.75000000    0.58333333
    0.41666667    0.75000000    0.66666667
    0.41666667    0.75000000    0.75000000
    0.41666667    0.75000000    0.83333333
    0.41666667    0.75000000    0.91666667
    0.41666667    0.83333333    0.00000000
    0.41666667    0.83333333    0.08333333
    0.41666667    0.83333333    0.16666667
    0.41666667    0.83333333    0.25000000
    0.41666667    0.83333333    0.33333333
    0.41666667    0.83333333    0.41666667
    0.41666667    0.83333333    0.50000000
    0.41666667    0.83333333    0.58333333
    0.41666667    0.83333333    0.66666667
    0.41666667    0.83333333    0.75000000
    0.41666667    0.83333333    0.83333333
    0.41666667    0.83333333    0.91666667
    0.41666667    0.91666667    0.00000000
    0.41666667    0.91666667    0.08333333
    0.41666667    0.91666667    0.16666667
    0.41666667    0.91666667    0.25000000
    0.41666667    0.91666667    0.33333333
    0.41666667    0.91666667    0.41666667
    0.41666667    0.91666667    0.50000000
    0.41666667    0.91666667    0.58333333
    0.41666667    0.91666667    0.66666667
    0.41666667    0.91666667    0.75000000
    0.41666667    0.91666667    0.83333333
    0.41666667    0.91666667    0.91666667
    0.50000000   -0.00000000    0.00000000
    0.50000000   -0.00000000    0.08333333
    0.50000000   -0.00000000    0.16666667
    0.50000000   -0.00000000    0.25000000
    0.50000000   -0.00000000    0.33333333
    0.50000000   -0.00000000    0.41666667
    0.50000000   -0.00000000    0.50000000
    0.50000000   -0.00000000    0.58333333
    0.50000000   -0.00000000    0.66666667
    0.50000000   -0.00000000    0.75000000
    0.50000000   -0.00000000    0.83333333
    0.50000000   -0.00000000    0.91666667
    0.50000000    0.08333333    0.00000000
    0.50000000    0.08333333    0.08333333
    0.50000000    0.08333333    0.16666667
    0.50000000    0.08333333    0.25000000
    0.50000000    0.08333333    0.33333333
    0.50000000    0.08333333    0.41666667
    0.50000000    0.08333333    0.50000000
    0.50000000    0.08333333    0.58333333
    0.50000000    0.08333333    0.66666667
    0.50000000    0.08333333    0.75000000
    0.50000000    0.08333333    0.83333333
    0.50000000    0.08333333    0.91666667
    0.50000000    0.16666667    0.00000000
    0.50000000    0.16666667    0.08333333
    0.50000000    0.16666667    0.16666667
    0.50000000    0.16666667    0.25000000
    0.50000000    0.16666667    0.33333333
    0.50000000    0.16666667    0.41666667
    0.50000000    0.16666667    0.50000000
    0.50000000    0.16666667    0.58333333
    0.50000000    0.16666667    0.66666667
    0.50000000    0.16666667    0.75000000
    0.50000000    0.16666667    0.83333333
    0.50000000    0.16666667    0.91666667
    0.50000000    0.25000000    0.00000000
    0.50000000    0.25000000    0.08333333
    0.50000000    0.25000000    0.16666667
    0.50000000    0.25000000    0.25000000
    0.50000000    0.25000000    0.33333333
    0.50000000    0.25000000    0.41666667
    0.50000000    0.25000000    0.50000000
    0.50000000    0.25000000    0.58333333
    0.50000000    0.25000000    0.66666667
    0.50000000    0.25000000    0.75000000
    0.50000000    0.25000000    0.83333333
    0.50000000    0.25000000    0.91666667
    0.50000000    0.33333333    0.00000000
    0.50000000    0.33333333    0.08333333
    0.50000000    0.33333333    0.16666667
    0.50000000    0.33333333    0.25000000
    0.50000000    0.33333333    0.33333333
    0.50000000    0.33333333    0.41666667
    0.50000000    0.33333333    0.50000000
    0.50000000    0.33333333    0.58333333
    0.50000000    0.33333333    0.66666667
    0.50000000    0.33333333    0.75000000
    0.50000000    0.33333333    0.83333333
    0.50000000    0.33333333    0.91666667
    0.50000000    0.41666667    0.00000000
    0.50000000    0.41666667    0.08333333
    0.50000000    0.41666667    0.16666667
    0.50000000    0.41666667    0.25000000
    0.50000000    0.41666667    0.33333333
    0.50000000    0.41666667    0.41666667
    0.50000000    0.41666667    0.50000000
    0.50000000    0.41666667    0.58333333
    0.50000000    0.41666667    0.66666667
    0.50000000    0.41666667    0.75000000
    0.50000000    0.41666667    0.83333333
    0.50000000    0.41666667    0.91666667
    0.50000000    0.50000000    0.00000000
    0.50000000    0.50000000    0.08333333
    0.50000000    0.50000000    0.16666667
    0.50000000    0.50000000    0.25000000
    0.50000000    0.50000000    0.33333333
    0.50000000    0.50000000    0.41666667
    0.50000000    0.50000000    0.50000000
    0.50000000    0.50000000    0.58333333
    0.50000000    0.50000000    0.66666667
    0.50000000    0.50000000    0.75000000
    0.50000000    0.50000000    0.83333333
    0.50000000    0.50000000    0.91666667
    0.50000000    0.58333333    0.00000000
    0.50000000    0.58333333    0.08333333
    0.50000000    0.58333333    0.16666667
    0.50000000    0.58333333    0.25000000
    0.50000000    0.58333333    0.33333333
    0.50000000    0.58333333    0.41666667
    0.50000000    0.58333333    0.50000000
    0.50000000    0.58333333    0.58333333
    0.50000000    0.58333333    0.66666667
    0.50000000    0.58333333    0.75000000
    0.50000000    0.58333333    0.83333333
    0.50000000    0.58333333    0.91666667
    0.50000000    0.66666667    0.00000000
    0.50000000    0.66666667    0.08333333
    0.50000000    0.66666667    0.16666667
    0.50000000    0.66666667    0.25000000
    0.50000000    0.66666667    0.33333333
    0.50000000    0.66666667    0.41666667
    0.50000000    0.66666667    0.50000000
    0.50000000    0.66666667    0.58333333
    0.50000000    0.66666667    0.66666667
    0.50000000    0.66666667    0.75000000
    0.50000000    0.66666667    0.83333333
    0.50000000    0.66666667    0.91666667
    0.50000000    0.75000000    0.00000000
    0.50000000    0.75000000    0.08333333
    0.50000000    0.75000000    0.16666667
    0.50000000    0.75000000    0.25000000
    0.50000000    0.75000000    0.33333333
    0.50000000    0.75000000    0.41666667
    0.50000000    0.75000000    0.50000000
    0.50000000    0.75000000    0.58333333
    0.50000000    0.75000000    0.66666667
    0.50000000    0.75000000    0.75000000
    0.50000000    0.75000000    0.83333333
    0.50000000    0.75000000    0.91666667
    0.50000000    0.83333333    0.00000000
    0.50000000    0.83333333    0.08333333
    0.50000000    0.83333333    0.16666667
    0.50000000    0.83333333    0.25000000
    0.50000000    0.83333333    0.33333333
    0.50000000    0.83333333    0.41666667
    0.50000000    0.83333333    0.50000000
    0.50000000    0.83333333    0.58333333
    0.50000000    0.83333333    0.66666667
    0.50000000    0.83333333    0.75000000
    0.50000000    0.83333333    0.83333333
    0.50000000    0.83333333    0.91666667
    0.50000000    0.91666667    0.00000000
    0.50000000    0.91666667    0.08333333
    0.50000000    0.91666667    0.16666667
    0.50000000    0.91666667    0.25000000
    0.50000000    0.91666667    0.33333333
    0.50000000    0.91666667    0.41666667
    0.50000000    0.91666667    0.50000000
    0.50000000    0.91666667    0.58333333
    0.50000000    0.91666667    0.66666667
    0.50000000    0.91666667    0.75000000
    0.50000000    0.91666667    0.83333333
    0.50000000    0.91666667    0.91666667
    0.58333333    0.00000000    0.00000000
    0.58333333    0.00000000    0.08333333
    0.58333333    0.00000000    0.16666667
    0.58333333    0.00000000    0.25000000
    0.58333333    0.00000000    0.33333333
    0.58333333    0.00000000    0.41666667
    0.58333333    0.00000000    0.50000000
    0.58333333    0.00000000    0.58333333
    0.58333333    0.00000000    0.66666667
    0.58333333    0.00000000    0.75000000
    0.58333333    0.00000000    0.83333333
    0.58333333    0.00000000    0.91666667
    0.58333333    0.08333333    0.00000000
    0.58333333    0.08333333    0.08333333
    0.58333333    0.08333333    0.16666667
    0.58333333    0.08333333    0.25000000
    0.58333333    0.08333333    0.33333333
    0.58333333    0.08333333    0.41666667
    0.58333333    0.08333333    0.50000000
    0.58333333    0.08333333    0.58333333
    0.58333333    0.08333333    0.66666667
    0.58333333    0.08333333    0.75000000
    0.58333333    0.08333333    0.83333333
    0.58333333    0.08333333    0.91666667
    0.58333333    0.16666667    0.00000000
    0.58333333    0.16666667    0.08333333
    0.58333333    0.16666667    0.16666667
    0.58333333    0.16666667    0.25000000
    0.58333333    0.16666667    0.33333333
    0.58333333    0.16666667    0.41666667
    0.58333333    0.16666667    0.50000000
    0.58333333    0.16666667    0.58333333
    0.58333333    0.16666667    0.66666667
    0.58333333    0.16666667    0.75000000
    0.58333333    0.16666667    0.83333333
    0.58333333    0.16666667    0.91666667
    0.58333333    0.25000000    0.00000000
    0.58333333    0.25000000    0.08333333
    0.58333333    0.25000000    0.16666667
    0.58333333    0.25000000    0.25000000
    0.58333333    0.25000000    0.33333333
    0.58333333    0.25000000    0.41666667
    0.58333333    0.25000000    0.50000000
    0.58333333    0.25000000    0.58333333
    0.58333333    0.25000000    0.66666667
    0.58333333    0.25000000    0.75000000
    0.58333333    0.25000000    0.83333333
    0.58333333    0.25000000    0.91666667
    0.58333333    0.33333333    0.00000000
    0.58333333    0.33333333    0.08333333
    0.58333333    0.33333333    0.16666667
    0.58333333    0.33333333    0.25000000
    0.58333333    0.33333333    0.33333333
    0.58333333    0.33333333    0.41666667
    0.58333333    0.33333333    0.50000000
    0.58333333    0.33333333    0.58333333
    0.58333333    0.33333333    0.66666667
    0.58333333    0.33333333    0.75000000
    0.58333333    0.33333333    0.83333333
    0.58333333    0.33333333    0.91666667
    0.58333333    0.41666667    0.00000000
    0.58333333    0.41666667    0.08333333
    0.58333333    0.41666667    0.16666667
    0.58333333    0.41666667    0.25000000
    0.58333333    0.41666667    0.33333333
    0.58333333    0.41666667    0.41666667
    0.58333333    0.41666667    0.50000000
    0.58333333    0.41666667    0.58333333
    0.58333333    0.41666667    0.66666667
    0.58333333    0.41666667    0.75000000
    0.58333333    0.41666667    0.83333333
    0.58333333    0.41666667    0.91666667
    0.58333333    0.50000000    0.00000000
    0.58333333    0.50000000    0.08333333
    0.58333333    0.50000000    0.16666667
    0.58333333    0.50000000    0.25000000
    0.58333333    0.50000000    0.33333333
    0.58333333    0.50000000    0.41666667
    0.58333333    0.50000000    0.50000000
    0.58333333    0.50000000    0.58333333
    0.58333333    0.50000000    0.66666667
    0.58333333    0.50000000    0.75000000
    0.58333333    0.50000000    0.83333333
    0.58333333    0.50000000    0.91666667
    0.58333333    0.58333333    0.00000000
    0.58333333    0.58333333    0.08333333
    0.58333333    0.58333333    0.16666667
    0.58333333    0.58333333    0.25000000
    0.58333333    0.58333333    0.33333333
    0.58333333    0.58333333    0.41666667
    0.58333333    0.58333333    0.50000000
    0.58333333    0.58333333    0.58333333
    0.58333333    0.58333333    0.66666667
    0.58333333    0.58333333    0.75000000
    0.58333333    0.58333333    0.83333333
    0.58333333    0.58333333    0.91666667
    0.58333333    0.66666667    0.00000000
    0.58333333    0.66666667    0.08333333
    0.58333333    0.66666667    0.16666667
    0.58333333    0.66666667    0.25000000
    0.58333333    0.66666667    0.33333333
    0.58333333    0.66666667    0.41666667
    0.58333333    0.66666667    0.50000000
    0.58333333    0.66666667    0.58333333
    0.58333333    0.66666667    0.66666667
    0.58333333    0.66666667    0.75000000
    0.58333333    0.66666667    0.83333333
    0.58333333    0.66666667    0.91666667
    0.58333333    0.75000000    0.00000000
    0.58333333    0.75000000    0.08333333
    0.58333333    0.75000000    0.16666667
    0.58333333    0.75000000    0.25000000
    0.58333333    0.75000000    0.33333333
    0.58333333    0.75000000    0.41666667
    0.58333333    0.75000000    0.50000000
    0.58333333    0.75000000    0.58333333
    0.58333333    0.75000000    0.66666667
    0.58333333    0.75000000    0.75000000
    0.58333333    0.75000000    0.83333333
    0.58333333    0.75000000    0.91666667
    0.58333333    0.83333333    0.00000000
    0.58333333    0.83333333    0.08333333
    0.58333333    0.83333333    0.16666667
    0.58333333    0.83333333    0.25000000
    0.58333333    0.83333333    0.33333333
    0.58333333    0.83333333    0.41666667
    0.58333333    0.83333333    0.50000000
    0.58333333    0.83333333    0.58333333
    0.58333333    0.83333333    0.66666667
    0.58333333    0.83333333    0.75000000
    0.58333333    0.83333333    0.83333333
    0.58333333    0.83333333    0.91666667
    0.58333333    0.91666667    0.00000000
    0.58333333    0.91666667    0.08333333
    0.58333333    0.91666667    0.16666667
    0.58333333    0.91666667    0.25000000
    0.58333333    0.91666667    0.33333333
    0.58333333    0.91666667    0.41666667
    0.58333333    0.91666667    0.50000000
    0.58333333    0.91666667    0.58333333
    0.58333333    0.91666667    0.66666667
    0.58333333    0.91666667    0.75000000
    0.58333333    0.91666667    0.83333333
    0.58333333    0.91666667    0.91666667
    0.66666667    0.00000000    0.00000000
    0.66666667    0.00000000    0.08333333
    0.66666667    0.00000000    0.16666667
    0.66666667    0.00000000    0.25000000
    0.66666667    0.00000000    0.33333333
    0.66666667    0.00000000    0.41666667
    0.66666667    0.00000000    0.50000000
    0.66666667    0.00000000    0.58333333
    0.66666667    0.00000000    0.66666667
    0.66666667    0.00000000    0.75000000
    0.66666667    0.00000000    0.83333333
    0.66666667    0.00000000    0.91666667
    0.66666667    0.08333333    0.00000000
    0.66666667    0.08333333    0.08333333
    0.66666667    0.08333333    0.16666667
    0.66666667    0.08333333    0.25000000
    0.66666667    0.08333333    0.33333333
    0.66666667    0.08333333    0.41666667
    0.66666667    0.08333333    0.50000000
    0.66666667    0.08333333    0.58333333
    0.66666667    0.08333333    0.66666667
    0.66666667    0.08333333    0.75000000
    0.66666667    0.08333333    0.83333333
    0.66666667    0.08333333    0.91666667
    0.66666667    0.16666667    0.00000000
    0.66666667    0.16666667    0.08333333
    0.66666667    0.16666667    0.16666667
    0.66666667    0.16666667    0.25000000
    0.66666667    0.16666667    0.33333333
    0.66666667    0.16666667    0.41666667
    0.66666667    0.16666667    0.50000000
    0.66666667    0.16666667    0.58333333
    0.66666667    0.16666667    0.66666667
    0.66666667    0.16666667    0.75000000
    0.66666667    0.16666667    0.83333333
    0.66666667    0.16666667    0.91666667
    0.66666667    0.25000000    0.00000000
    0.66666667    0.25000000    0.08333333
    0.66666667    0.25000000    0.16666667
    0.66666667    0.25000000    0.25000000
    0.66666667    0.25000000    0.33333333
    0.66666667    0.25000000    0.41666667
    0.66666667    0.25000000    0.50000000
    0.66666667    0.25000000    0.58333333
    0.66666667    0.25000000    0.66666667
    0.66666667    0.25000000    0.75000000
    0.66666667    0.25000000    0.83333333
    0.66666667    0.25000000    0.91666667
    0.66666667    0.33333333    0.00000000
    0.66666667    0.33333333    0.08333333
    0.66666667    0.33333333    0.16666667
    0.66666667    0.33333333    0.25000000
    0.66666667    0.33333333    0.33333333
    0.66666667    0.33333333    0.41666667
    0.66666667    0.33333333    0.50000000
    0.66666667    0.33333333    0.58333333
    0.66666667    0.33333333    0.66666667
    0.66666667    0.33333333    0.75000000
    0.66666667    0.33333333    0.83333333
    0.66666667    0.33333333    0.91666667
    0.66666667    0.41666667    0.00000000
    0.66666667    0.41666667    0.08333333
    0.66666667    0.41666667    0.16666667
    0.66666667    0.41666667    0.25000000
    0.66666667    0.41666667    0.33333333
    0.66666667    0.41666667    0.41666667
    0.66666667    0.41666667    0.50000000
    0.66666667    0.41666667    0.58333333
    0.66666667    0.41666667    0.66666667
    0.66666667    0.41666667    0.75000000
    0.66666667    0.41666667    0.83333333
    0.66666667    0.41666667    0.91666667
    0.66666667    0.50000000    0.00000000
    0.66666667    0.50000000    0.08333333
    0.66666667    0.50000000    0.16666667
    0.66666667    0.50000000    0.25000000
    0.66666667    0.50000000    0.33333333
    0.66666667    0.50000000    0.41666667
    0.66666667    0.50000000    0.50000000
    0.66666667    0.50000000    0.58333333
    0.66666667    0.50000000    0.66666667
    0.66666667    0.50000000    0.75000000
    0.66666667    0.50000000    0.83333333
    0.66666667    0.50000000    0.91666667
    0.66666667    0.58333333    0.00000000
    0.66666667    0.58333333    0.08333333
    0.66666667    0.58333333    0.16666667
    0.66666667    0.58333333    0.25000000
    0.66666667    0.58333333    0.33333333
    0.66666667    0.58333333    0.41666667
    0.66666667    0.58333333    0.50000000
    0.66666667    0.58333333    0.58333333
    0.66666667    0.58333333    0.66666667
    0.66666667    0.58333333    0.75000000
    0.66666667    0.58333333    0.83333333
    0.66666667    0.58333333    0.91666667
    0.66666667    0.66666667    0.00000000
    0.66666667    0.66666667    0.08333333
    0.66666667    0.66666667    0.16666667
    0.66666667    0.66666667    0.25000000
    0.66666667    0.66666667    0.33333333
    0.66666667    0.66666667    0.41666667
    0.66666667    0.66666667    0.50000000
    0.66666667    0.66666667    0.58333333
    0.66666667    0.66666667    0.66666667
    0.66666667    0.66666667    0.75000000
    0.66666667    0.66666667    0.83333333
    0.66666667    0.66666667    0.91666667
    0.66666667    0.75000000    0.00000000
    0.66666667    0.75000000    0.08333333
    0.66666667    0.75000000    0.16666667
    0.66666667    0.75000000    0.25000000
    0.66666667    0.75000000    0.33333333
    0.66666667    0.75000000    0.41666667
    0.66666667    0.75000000    0.50000000
    0.66666667    0.75000000    0.58333333
    0.66666667    0.75000000    0.66666667
    0.66666667    0.75000000    0.75000000
    0.66666667    0.75000000    0.83333333
    0.66666667    0.75000000    0.91666667
    0.66666667    0.83333333    0.00000000
    0.66666667    0.83333333    0.08333333
    0.66666667    0.83333333    0.16666667
    0.66666667    0.83333333    0.25000000
    0.66666667    0.83333333    0.33333333
    0.66666667    0.83333333    0.41666667
    0.66666667    0.83333333    0.50000000
    0.66666667    0.83333333    0.58333333
    0.66666667    0.83333333    0.66666667
    0.66666667    0.83333333    0.75000000
    0.66666667    0.83333333    0.83333333
    0.66666667    0.83333333    0.91666667
    0.66666667    0.91666667    0.00000000
    0.66666667    0.91666667    0.08333333
    0.66666667    0.91666667    0.16666667
    0.66666667    0.91666667    0.25000000
    0.66666667    0.91666667    0.33333333
    0.66666667    0.91666667    0.41666667
    0.66666667    0.91666667    0.50000000
    0.66666667    0.91666667    0.58333333
    0.66666667    0.91666667    0.66666667
    0.66666667    0.91666667    0.75000000
    0.66666667    0.91666667    0.83333333
    0.66666667    0.91666667    0.91666667
    0.75000000   -0.00000000    0.00000000
    0.75000000   -0.00000000    0.08333333
    0.75000000   -0.00000000    0.16666667
    0.75000000   -0.00000000    0.25000000
    0.75000000   -0.00000000    0.33333333
    0.75000000   -0.00000000    0.41666667
    0.75000000   -0.00000000    0.50000000
    0.75000000   -0.00000000    0.58333333
    0.75000000   -0.00000000    0.66666667
    0.75000000   -0.00000000    0.75000000
    0.75000000   -0.00000000    0.83333333
    0.75000000   -0.00000000    0.91666667
    0.75000000    0.08333333    0.00000000
    0.75000000    0.08333333    0.08333333
    0.75000000    0.08333333    0.16666667
    0.75000000    0.08333333    0.25000000
    0.75000000    0.08333333    0.33333333
    0.75000000    0.08333333    0.41666667
    0.75000000    0.08333333    0.50000000
    0.75000000    0.08333333    0.58333333
    0.75000000    0.08333333    0.66666667
    0.75000000    0.08333333    0.75000000
    0.75000000    0.08333333    0.83333333
    0.75000000    0.08333333    0.91666667
    0.75000000    0.16666667    0.00000000
    0.75000000    0.16666667    0.08333333
    0.75000000    0.16666667    0.16666667
    0.75000000    0.16666667    0.25000000
    0.75000000    0.16666667    0.33333333
    0.75000000    0.16666667    0.41666667
    0.75000000    0.16666667    0.50000000
    0.75000000    0.16666667    0.58333333
    0.75000000    0.16666667    0.66666667
    0.75000000    0.16666667    0.75000000
    0.75000000    0.16666667    0.83333333
    0.75000000    0.16666667    0.91666667
    0.75000000    0.25000000    0.00000000
    0.75000000    0.25000000    0.08333333
    0.75000000    0.25000000    0.16666667
    0.75000000    0.25000000    0.25000000
    0.75000000    0.25000000    0.33333333
    0.75000000    0.25000000    0.41666667
    0.75000000    0.25000000    0.50000000
    0.75000000    0.25000000    0.58333333
    0.75000000    0.25000000    0.66666667
    0.75000000    0.25000000    0.75000000
    0.75000000    0.25000000    0.83333333
    0.75000000    0.25000000    0.91666667
    0.75000000    0.33333333    0.00000000
    0.75000000    0.33333333    0.08333333
    0.75000000    0.33333333    0.16666667
    0.75000000    0.33333333    0.25000000
    0.75000000    0.33333333    0.33333333
    0.75000000    0.33333333    0.41666667
    0.75000000    0.33333333    0.50000000
    0.75000000    0.33333333    0.58333333
    0.75000000    0.33333333    0.66666667
    0.75000000    0.33333333    0.75000000
    0.75000000    0.33333333    0.83333333
    0.75000000    0.33333333    0.91666667
    0.75000000    0.41666667    0.00000000
    0.75000000    0.41666667    0.08333333
    0.75000000    0.41666667    0.16666667
    0.75000000    0.41666667    0.25000000
    0.75000000    0.41666667    0.33333333
    0.75000000    0.41666667    0.41666667
    0.75000000    0.41666667    0.50000000
    0.75000000    0.41666667    0.58333333
    0.75000000    0.41666667    0.66666667
    0.75000000    0.41666667    0.75000000
    0.75000000    0.41666667    0.83333333
    0.75000000    0.41666667    0.91666667
    0.75000000    0.50000000    0.00000000
    0.75000000    0.50000000    0.08333333
    0.75000000    0.50000000    0.16666667
    0.75000000    0.50000000    0.25000000
    0.75000000    0.50000000    0.33333333
    0.75000000    0.50000000    0.41666667
    0.75000000    0.50000000    0.50000000
    0.75000000    0.50000000    0.58333333
    0.75000000    0.50000000    0.66666667
    0.75000000    0.50000000    0.75000000
    0.75000000    0.50000000    0.83333333
    0.75000000    0.50000000    0.91666667
    0.75000000    0.58333333    0.00000000
    0.75000000    0.58333333    0.08333333
    0.75000000    0.58333333    0.16666667
    0.75000000    0.58333333    0.25000000
    0.75000000    0.58333333    0.33333333
    0.75000000    0.58333333    0.41666667
    0.75000000    0.58333333    0.50000000
    0.75000000    0.58333333    0.58333333
    0.75000000    0.58333333    0.66666667
    0.75000000    0.58333333    0.75000000
    0.75000000    0.58333333    0.83333333
    0.75000000    0.58333333    0.91666667
    0.75000000    0.66666667    0.00000000
    0.75000000    0.66666667    0.08333333
    0.75000000    0.66666667    0.16666667
    0.75000000    0.66666667    0.25000000
    0.75000000    0.66666667    0.33333333
    0.75000000    0.66666667    0.41666667
    0.75000000    0.66666667    0.50000000
    0.75000000    0.66666667    0.58333333
    0.75000000    0.66666667    0.66666667
    0.75000000    0.66666667    0.75000000
    0.75000000    0.66666667    0.83333333
    0.75000000    0.66666667    0.91666667
    0.75000000    0.75000000    0.00000000
    0.75000000    0.75000000    0.08333333
    0.75000000    0.75000000    0.16666667
    0.75000000    0.75000000    0.25000000
    0.75000000    0.75000000    0.33333333
    0.75000000    0.75000000    0.41666667
    0.75000000    0.75000000    0.50000000
    0.75000000    0.75000000    0.58333333
    0.75000000    0.75000000    0.66666667
    0.75000000    0.75000000    0.75000000
    0.75000000    0.75000000    0.83333333
    0.75000000    0.75000000    0.91666667
    0.75000000    0.83333333    0.00000000
    0.75000000    0.83333333    0.08333333
    0.75000000    0.83333333    0.16666667
    0.75000000    0.83333333    0.25000000
    0.75000000    0.83333333    0.33333333
    0.75000000    0.83333333    0.41666667
    0.75000000    0.83333333    0.50000000
    0.75000000    0.83333333    0.58333333
    0.75000000    0.83333333    0.66666667
    0.75000000    0.83333333    0.75000000
    0.75000000    0.83333333    0.83333333
    0.75000000    0.83333333    0.91666667
    0.75000000    0.91666667    0.00000000
    0.75000000    0.91666667    0.08333333
    0.75000000    0.91666667    0.16666667
    0.75000000    0.91666667    0.25000000
    0.75000000    0.91666667    0.33333333
    0.75000000    0.91666667    0.41666667
    0.75000000    0.91666667    0.50000000
    0.75000000    0.91666667    0.58333333
    0.75000000    0.91666667    0.66666667
    0.75000000    0.91666667    0.75000000
    0.75000000    0.91666667    0.83333333
    0.75000000    0.91666667    0.91666667
    0.83333333    0.00000000    0.00000000
    0.83333333    0.00000000    0.08333333
    0.83333333    0.00000000    0.16666667
    0.83333333    0.00000000    0.25000000
    0.83333333    0.00000000    0.33333333
    0.83333333    0.00000000    0.41666667
    0.83333333    0.00000000    0.50000000
    0.83333333    0.00000000    0.58333333
    0.83333333    0.00000000    0.66666667
    0.83333333    0.00000000    0.75000000
    0.83333333    0.00000000    0.83333333
    0.83333333    0.00000000    0.91666667
    0.83333333    0.08333333    0.00000000
    0.83333333    0.08333333    0.08333333
    0.83333333    0.08333333    0.16666667
    0.83333333    0.08333333    0.25000000
    0.83333333    0.08333333    0.33333333
    0.83333333    0.08333333    0.41666667
    0.83333333    0.08333333    0.50000000
    0.83333333    0.08333333    0.58333333
    0.83333333    0.08333333    0.66666667
    0.83333333    0.08333333    0.75000000
    0.83333333    0.08333333    0.83333333
    0.83333333    0.08333333    0.91666667
    0.83333333    0.16666667    0.00000000
    0.83333333    0.16666667    0.08333333
    0.83333333    0.16666667    0.16666667
    0.83333333    0.16666667    0.25000000
    0.83333333    0.16666667    0.33333333
    0.83333333    0.16666667    0.41666667
    0.83333333    0.16666667    0.50000000
    0.83333333    0.16666667    0.58333333
    0.83333333    0.16666667    0.66666667
    0.83333333    0.16666667    0.75000000
    0.83333333    0.16666667    0.83333333
    0.83333333    0.16666667    0.91666667
    0.83333333    0.25000000    0.00000000
    0.83333333    0.25000000    0.08333333
    0.83333333    0.25000000    0.16666667
    0.83333333    0.25000000    0.25000000
    0.83333333    0.25000000    0.33333333
    0.83333333    0.25000000    0.41666667
    0.83333333    0.25000000    0.50000000
    0.83333333    0.25000000    0.58333333
    0.83333333    0.25000000    0.66666667
    0.83333333    0.25000000    0.75000000
    0.83333333    0.25000000    0.83333333
    0.83333333    0.25000000    0.91666667
    0.83333333    0.33333333    0.00000000
    0.83333333    0.33333333    0.08333333
    0.83333333    0.33333333    0.16666667
    0.83333333    0.33333333    0.25000000
    0.83333333    0.33333333    0.33333333
    0.83333333    0.33333333    0.41666667
    0.83333333    0.33333333    0.50000000
    0.83333333    0.33333333    0.58333333
    0.83333333    0.33333333    0.66666667
    0.83333333    0.33333333    0.75000000
    0.83333333    0.33333333    0.83333333
    0.83333333    0.33333333    0.91666667
    0.83333333    0.41666667    0.00000000
    0.83333333    0.41666667    0.08333333
    0.83333333    0.41666667    0.16666667
    0.83333333    0.41666667    0.25000000
    0.83333333    0.41666667    0.33333333
    0.83333333    0.41666667    0.41666667
    0.83333333    0.41666667    0.50000000
    0.83333333    0.41666667    0.58333333
    0.83333333    0.41666667    0.66666667
    0.83333333    0.41666667    0.75000000
    0.83333333    0.41666667    0.83333333
    0.83333333    0.41666667    0.91666667
    0.83333333    0.50000000    0.00000000
    0.83333333    0.50000000    0.08333333
    0.83333333    0.50000000    0.16666667
    0.83333333    0.50000000    0.25000000
    0.83333333    0.50000000    0.33333333
    0.83333333    0.50000000    0.41666667
    0.83333333    0.50000000    0.50000000
    0.83333333    0.50000000    0.58333333
    0.83333333    0.50000000    0.66666667
    0.83333333    0.50000000    0.75000000
    0.83333333    0.50000000    0.83333333
    0.83333333    0.50000000    0.91666667
    0.83333333    0.58333333    0.00000000
    0.83333333    0.58333333    0.08333333
    0.83333333    0.58333333    0.16666667
    0.83333333    0.58333333    0.25000000
    0.83333333    0.58333333    0.33333333
    0.83333333    0.58333333    0.41666667
    0.83333333    0.58333333    0.50000000
    0.83333333    0.58333333    0.58333333
    0.83333333    0.58333333    0.66666667
    0.83333333    0.58333333    0.75000000
    0.83333333    0.58333333    0.83333333
    0.83333333    0.58333333    0.91666667
    0.83333333    0.66666667    0.00000000
    0.83333333    0.66666667    0.08333333
    0.83333333    0.66666667    0.16666667
    0.83333333    0.66666667    0.25000000
    0.83333333    0.66666667    0.33333333
    0.83333333    0.66666667    0.41666667
    0.83333333    0.66666667    0.50000000
    0.83333333    0.66666667    0.58333333
    0.83333333    0.66666667    0.66666667
    0.83333333    0.66666667    0.75000000
    0.83333333    0.66666667    0.83333333
    0.83333333    0.66666667    0.91666667
    0.83333333    0.75000000    0.00000000
    0.83333333    0.75000000    0.08333333
    0.83333333    0.75000000    0.16666667
    0.83333333    0.75000000    0.25000000
    0.83333333    0.75000000    0.33333333
    0.83333333    0.75000000    0.41666667
    0.83333333    0.75000000    0.50000000
    0.83333333    0.75000000    0.58333333
    0.83333333    0.75000000    0.66666667
    0.83333333    0.75000000    0.75000000
    0.83333333    0.75000000    0.83333333
    0.83333333    0.75000000    0.91666667
    0.83333333    0.83333333    0.00000000
    0.83333333    0.83333333    0.08333333
    0.83333333    0.83333333    0.16666667
    0.83333333    0.83333333    0.25000000
    0.83333333    0.83333333    0.33333333
    0.83333333    0.83333333    0.41666667
    0.83333333    0.83333333    0.50000000
    0.83333333    0.83333333    0.58333333
    0.83333333    0.83333333    0.66666667
    0.83333333    0.83333333    0.75000000
    0.83333333    0.83333333    0.83333333
    0.83333333    0.83333333    0.91666667
    0.83333333    0.91666667    0.00000000
    0.83333333    0.91666667    0.08333333
    0.83333333    0.91666667    0.16666667
    0.83333333    0.91666667    0.25000000
    0.83333333    0.91666667    0.33333333
    0.83333333    0.91666667    0.41666667
    0.83333333    0.91666667    0.50000000
    0.83333333    0.91666667    0.58333333
    0.83333333    0.91666667    0.66666667
    0.83333333    0.91666667    0.75000000
    0.83333333    0.91666667    0.83333333
    0.83333333    0.91666667    0.91666667
    0.91666667    0.00000000    0.00000000
    0.91666667    0.00000000    0.08333333
    0.91666667    0.00000000    0.16666667
    0.91666667    0.00000000    0.25000000
    0.91666667    0.00000000    0.33333333
    0.91666667    0.00000000    0.41666667
    0.91666667    0.00000000    0.50000000
    0.91666667    0.00000000    0.58333333
    0.91666667    0.00000000    0.66666667
    0.91666667    0.00000000    0.75000000
    0.91666667    0.00000000    0.83333333
    0.91666667    0.00000000    0.91666667
    0.91666667    0.08333333    0.00000000
    0.91666667    0.08333333    0.08333333
    0.91666667    0.08333333    0.16666667
    0.91666667    0.08333333    0.25000000
    0.91666667    0.08333333    0.33333333
    0.91666667    0.08333333    0.41666667
    0.91666667    0.08333333    0.50000000
    0.91666667    0.08333333    0.58333333
    0.91666667    0.08333333    0.66666667
    0.91666667    0.08333333    0.75000000
    0.91666667    0.08333333    0.83333333
    0.91666667    0.08333333    0.91666667
    0.91666667    0.16666667    0.00000000
    0.91666667    0.16666667    0.08333333
    0.91666667    0.16666667    0.16666667
    0.91666667    0.16666667    0.25000000
    0.91666667    0.16666667    0.33333333
    0.91666667    0.16666667    0.41666667
    0.91666667    0.16666667    0.50000000
    0.91666667    0.16666667    0.58333333
    0.91666667    0.16666667    0.66666667
    0.91666667    0.16666667    0.75000000
    0.91666667    0.16666667    0.83333333
    0.91666667    0.16666667    0.91666667
    0.91666667    0.25000000    0.00000000
    0.91666667    0.25000000    0.08333333
    0.91666667    0.25000000    0.16666667
    0.91666667    0.25000000    0.25000000
    0.91666667    0.25000000    0.33333333
    0.91666667    0.25000000    0.41666667
    0.91666667    0.25000000    0.50000000
    0.91666667    0.25000000    0.58333333
    0.91666667    0.25000000    0.66666667
    0.91666667    0.25000000    0.75000000
    0.91666667    0.25000000    0.83333333
    0.91666667    0.25000000    0.91666667
    0.91666667    0.33333333    0.00000000
    0.91666667    0.33333333    0.08333333
    0.91666667    0.33333333    0.16666667
    0.91666667    0.33333333    0.25000000
    0.91666667    0.33333333    0.33333333
    0.91666667    0.33333333    0.41666667
    0.91666667    0.33333333    0.50000000
    0.91666667    0.33333333    0.58333333
    0.91666667    0.33333333    0.66666667
    0.91666667    0.33333333    0.75000000
    0.91666667    0.33333333    0.83333333
    0.91666667    0.33333333    0.91666667
    0.91666667    0.41666667    0.00000000
    0.91666667    0.41666667    0.08333333
    0.91666667    0.41666667    0.16666667
    0.91666667    0.41666667    0.25000000
    0.91666667    0.41666667    0.33333333
    0.91666667    0.41666667    0.41666667
    0.91666667    0.41666667    0.50000000
    0.91666667    0.41666667    0.58333333
    0.91666667    0.41666667    0.66666667
    0.91666667    0.41666667    0.75000000
    0.91666667    0.41666667    0.83333333
    0.91666667    0.41666667    0.91666667
    0.91666667    0.50000000    0.00000000
    0.91666667    0.50000000    0.08333333
    0.91666667    0.50000000    0.16666667
    0.91666667    0.50000000    0.25000000
    0.91666667    0.50000000    0.33333333
    0.91666667    0.50000000    0.41666667
    0.91666667    0.50000000    0.50000000
    0.91666667    0.50000000    0.58333333
    0.91666667    0.50000000    0.66666667
    0.91666667    0.50000000    0.75000000
    0.91666667    0.50000000    0.83333333
    0.91666667    0.50000000    0.91666667
    0.91666667    0.58333333    0.00000000
    0.91666667    0.58333333    0.08333333
    0.91666667    0.58333333    0.16666667
    0.91666667    0.58333333    0.25000000
    0.91666667    0.58333333    0.33333333
    0.91666667    0.58333333    0.41666667
    0.91666667    0.58333333    0.50000000
    0.91666667    0.58333333    0.58333333
    0.91666667    0.58333333    0.66666667
    0.91666667    0.58333333    0.75000000
    0.91666667    0.58333333    0.83333333
    0.91666667    0.58333333    0.91666667
    0.91666667    0.66666667    0.00000000
    0.91666667    0.66666667    0.08333333
    0.91666667    0.66666667    0.16666667
    0.91666667    0.66666667    0.25000000
    0.91666667    0.66666667    0.33333333
    0.91666667    0.66666667    0.41666667
    0.91666667    0.66666667    0.50000000
    0.91666667    0.66666667    0.58333333
    0.91666667    0.66666667    0.66666667
    0.91666667    0.66666667    0.75000000
    0.91666667    0.66666667    0.83333333
    0.91666667    0.66666667    0.91666667
    0.91666667    0.75000000    0.00000000
    0.91666667    0.75000000    0.08333333
    0.91666667    0.75000000    0.16666667
    0.91666667    0.75000000    0.25000000
    0.91666667    0.75000000    0.33333333
    0.91666667    0.75000000    0.41666667
    0.91666667    0.75000000    0.50000000
    0.91666667    0.75000000    0.58333333
    0.91666667    0.75000000    0.66666667
    0.91666667    0.75000000    0.75000000
    0.91666667    0.75000000    0.83333333
    0.91666667    0.75000000    0.91666667
    0.91666667    0.83333333    0.00000000
    0.91666667    0.83333333    0.08333333
    0.91666667    0.83333333    0.16666667
    0.91666667    0.83333333    0.25000000
    0.91666667    0.83333333    0.33333333
    0.91666667    0.83333333    0.41666667
    0.91666667    0.83333333    0.50000000
    0.91666667    0.83333333    0.58333333
    0.91666667    0.83333333    0.66666667
    0.91666667    0.83333333    0.75000000
    0.91666667    0.83333333    0.83333333
    0.91666667    0.83333333    0.91666667
    0.91666667    0.91666667    0.00000000
    0.91666667    0.91666667    0.08333333
    0.91666667    0.91666667    0.16666667
    0.91666667    0.91666667    0.25000000
    0.91666667    0.91666667    0.33333333
    0.91666667    0.91666667    0.41666667
    0.91666667    0.91666667    0.50000000
    0.91666667    0.91666667    0.58333333
    0.91666667    0.91666667    0.66666667
    0.91666667    0.91666667    0.75000000
    0.91666667    0.91666667    0.83333333
    0.91666667    0.91666667    0.91666667
end kpoints

begin projections
     6
   0.37687    0.58274    0.64157     0  1  1
    0.0000000  0.0000000  1.0000000   1.0000000  0.0000000  0.0000000    1.00
   0.37093    0.66853    0.10059     0  1  1
    0.0000000  0.0000000  1.0000000   1.0000000  0.0000000  0.0000000    1.00
   0.84470    0.78452    0.31731     0  1  1
    0.0000000  0.0000000  1.0000000   1.0000000  0.0000000  0.0000000    1.00
   0.24554    0.55086    0.04948     0  1  1
    0.0000000  0.0000000  1.0000000   1.0000000  0.0000000  0.0000000    1.00
   0.14936    0.20432    0.49829     0  1  1
    0.0000000  0.0000000  1.0000000   1.0000000  0.0000000  0.0000000    1.00
   0.92952    0.62871    0.74926     0  1  1
    0.0000000  0.0000000  1.0000000   1.0000000  0.0000000  0.0000000    1.00
end projections

begin nnkpts
   8
     1     2      0   0   0
     1    12      0   0  -1
     1    13      0   0   0
     1   145      0   0   0
     1   133      0  -1   0
     1   277      0  -1   0
     1  1585     -1   0   0
     1  1597     -1   0   0
     2     1      0   0   0
     2     3      0   0   0
     2    14      0   0   0
     2   146      0   0   0
     2   134      0  -1   0
     2   278      0  -1   0
     2  1586     -1   0   0
     2  1598     -1   0   0
     3     2      0   0   0
     3     4      0   0   0
     3    15      0   0   0
     3   147      0   0   0
     3   135      0  -1   0
     3   279      0  -1   0
     3  1587     -1   0   0
     3  1599     -1   0   0
     4     3      0   0   0
     4     5      0   0   0
     4    16      0   0   0
     4   148      0   0   0
     4   136      0  -1   0
     4   280      0  -1   0
     4  1588     -1   0   0
     4  1600     -1   0   0
     5     4      0   0   0
     5     6      0   0   0
     5    17      0   0   0
     5   149      0   0   0
     5   137      0  -1   0
     5   281      0  -1   0
     5  1589     -1   0   0
     5  1601     -1   0   0
     6     5      0   0   0
     6     7      0   0   0
     6    18      0   0   0
     6   150      0   0   0
     6   138      0  -1   0
     6   282      0  -1   0
     6  1590     -1   0   0
     6  1602     -1   0   0
     7     6      0   0   0
     7     8      0   0   0
     7    19      0   0   0
     7   151      0   0   0
     7   139      0  -1   0
     7   283      0  -1   0
     7  1591     -1   0   0
     7  1603     -1   0   0
     8     7      0   0   0
     8     9      0   0   0
     8    20      0   0   0
     8   152      0   0   0
     8   140      0  -1   0
     8   284      0  -1   0
     8  1592     -1   0   0
     8  1604     -1   0   0
     9     8      0   0   0
     9    10      0   0   0
     9    21      0   0   0
     9   153      0   0   0
     9   141      0  -1   0
     9   285      0  -1   0
     9  1593     -1   0   0
     9  1605     -1   0   0
    10     9      0   0   0
    10    11      0   0   0
    10    22      0   0   0
    10   154      0   0   0
    10   142      0  -1   0
    10   286      0  -1   0
    10  1594     -1   0   0
    10  1606     -1   0   0
    11    10      0   0   0
    11    12      0   0   0
    11    23      0   0   0
    11   155      0   0   0
    11   143      0  -1   0
    11   287      0  -1   0
    11  1595     -1   0   0
    11  1607     -1   0   0
    12    11      0   0   0
    12     1      0   0   1
    12    24      0   0   0
    12   156      0   0   0
    12   144      0  -1   0
    12   288      0  -1   0
    12  1596     -1   0   0
    12  1608     -1   0   0
    13    14      0   0   0
    13    24      0   0  -1
    13     1      0   0   0
    13    25      0   0   0
    13   145      0   0   0
    13   157      0   0   0
    13  1597     -1   0   0
    13  1609     -1   0   0
    14    13      0   0   0
    14    15      0   0   0
    14     2      0   0   0
    14    26      0   0   0
    14   146      0   0   0
    14   158      0   0   0
    14  1598     -1   0   0
    14  1610     -1   0   0
    15    14      0   0   0
    15    16      0   0   0
    15     3      0   0   0
    15    27      0   0   0
    15   147      0   0   0
    15   159      0   0   0
    15  1599     -1   0   0
    15  1611     -1   0   0
    16    15      0   0   0
    16    17      0   0   0
    16     4      0   0   0
    16    28      0   0   0
    16   148      0   0   0
    16   160      0   0   0
    16  1600     -1   0   0
    16  1612     -1   0   0
    17    16      0   0   0
    17    18      0   0   0
    17     5      0   0   0
    17    29      0   0   0
    17   149      0   0   0
    17   161      0   0   0
    17  1601     -1   0   0
    17  1613     -1   0   0
    18    17      0   0   0
    18    19      0   0   0
    18     6      0   0   0
    18    30      0   0   0
    18   150      0   0   0
    18   162      0   0   0
    18  1602     -1   0   0
    18  1614     -1   0   0
    19    18      0   0   0
    19    20      0   0   0
    19     7      0   0   0
    19    31      0   0   0
    19   151      0   0   0
    19   163      0   0   0
    19  1603     -1   0   0
    19  1615     -1   0   0
    20    19      0   0   0
    20    21      0   0   0
    20     8      0   0   0
    20    32      0   0   0
    20   152      0   0   0
    20   164      0   0   0
    20  1604     -1   0   0
    20  1616     -1   0   0
[...]
  1640  1639      0   0   0
  1640  1641      0   0   0
  1640  1496      0   0   0
  1640  1508      0   0   0
  1640  1628      0   0   0
  1640  1652      0   0   0
  1640    44      1   0   0
  1640    56      1   0   0
  1641  1640      0   0   0
  1641  1642      0   0   0
  1641  1497      0   0   0
  1641  1509      0   0   0
  1641  1629      0   0   0
  1641  1653      0   0   0
  1641    45      1   0   0
  1641    57      1   0   0
  1642  1641      0   0   0
  1642  1643      0   0   0
  1642  1498      0   0   0
  1642  1510      0   0   0
  1642  1630      0   0   0
  1642  1654      0   0   0
  1642    46      1   0   0
  1642    58      1   0   0
  1643  1642      0   0   0
  1643  1644      0   0   0
  1643  1499      0   0   0
  1643  1511      0   0   0
  1643  1631      0   0   0
  1643  1655      0   0   0
  1643    47      1   0   0
  1643    59      1   0   0
  1644  1643      0   0   0
  1644  1633      0   0   1
  1644  1500      0   0   0
  1644  1512      0   0   0
  1644  1632      0   0   0
  1644  1656      0   0   0
  1644    48      1   0   0
  1644    60      1   0   0
  1645  1646      0   0   0
  1645  1656      0   0  -1
  1645  1501      0   0   0
  1645  1513      0   0   0
  1645  1633      0   0   0
  1645  1657      0   0   0
  1645    49      1   0   0
  1645    61      1   0   0
  1646  1645      0   0   0
  1646  1647      0   0   0
  1646  1502      0   0   0
  1646  1514      0   0   0
  1646  1634      0   0   0
  1646  1658      0   0   0
  1646    50      1   0   0
  1646    62      1   0   0
  1647  1646      0   0   0
  1647  1648      0   0   0
  1647  1503      0   0   0
  1647  1515      0   0   0
  1647  1635      0   0   0
  1647  1659      0   0   0
  1647    51      1   0   0
  1647    63      1   0   0
  1648  1647      0   0   0
  1648  1649      0   0   0
  1648  1504      0   0   0
  1648  1516      0   0   0
  1648  1636      0   0   0
  1648  1660      0   0   0
  1648    52      1   0   0
  1648    64      1   0   0
  1649  1648      0   0   0
  1649  1650      0   0   0
  1649  1505      0   0   0
  1649  1517      0   0   0
  1649  1637      0   0   0
  1649  1661      0   0   0
  1649    53      1   0   0
  1649    65      1   0   0
  1650  1649      0   0   0
  1650  1651      0   0   0
  1650  1506      0   0   0
  1650  1518      0   0   0
  1650  1638      0   0   0
  1650  1662      0   0   0
  1650    54      1   0   0
  1650    66      1   0   0
  1651  1650      0   0   0
  1651  1652      0   0   0
  1651  1507      0   0   0
  1651  1519      0   0   0
  1651  1639      0   0   0
  1651  1663      0   0   0
  1651    55      1   0   0
  1651    67      1   0   0
  1652  1651      0   0   0
  1652  1653      0   0   0
  1652  1508      0   0   0
  1652  1520      0   0   0
  1652  1640      0   0   0
  1652  1664      0   0   0
  1652    56      1   0   0
  1652    68      1   0   0
  1653  1652      0   0   0
  1653  1654      0   0   0
  1653  1509      0   0   0
  1653  1521      0   0   0
  1653  1641      0   0   0
  1653  1665      0   0   0
  1653    57      1   0   0
  1653    69      1   0   0
  1654  1653      0   0   0
  1654  1655      0   0   0
  1654  1510      0   0   0
  1654  1522      0   0   0
  1654  1642      0   0   0
  1654  1666      0   0   0
  1654    58      1   0   0
  1654    70      1   0   0
  1655  1654      0   0   0
  1655  1656      0   0   0
  1655  1511      0   0   0
  1655  1523      0   0   0
  1655  1643      0   0   0
  1655  1667      0   0   0
  1655    59      1   0   0
  1655    71      1   0   0
  1656  1655      0   0   0
  1656  1645      0   0   1
  1656  1512      0   0   0
  1656  1524      0   0   0
  1656  1644      0   0   0
  1656  1668      0   0   0
  1656    60      1   0   0
  1656    72      1   0   0
  1657  1658      0   0   0
  1657  1668      0   0  -1
  1657  1513      0   0   0
  1657  1525      0   0   0
  1657  1645      0   0   0
  1657  1669      0   0   0
  1657    61      1   0   0
  1657    73      1   0   0
  1658  1657      0   0   0
  1658  1659      0   0   0
  1658  1514      0   0   0
  1658  1526      0   0   0
  1658  1646      0   0   0
  1658  1670      0   0   0
  1658    62      1   0   0
  1658    74      1   0   0
  1659  1658      0   0   0
  1659  1660      0   0   0
  1659  1515      0   0   0
  1659  1527      0   0   0
  1659  1647      0   0   0
  1659  1671      0   0   0
  1659    63      1   0   0
  1659    75      1   0   0
  1660  1659      0   0   0
  1660  1661      0   0   0
  1660  1516      0   0   0
  1660  1528      0   0   0
  1660  1648      0   0   0
  1660  1672      0   0   0
  1660    64      1   0   0
  1660    76      1   0   0
  1661  1660      0   0   0
  1661  1662      0   0   0
  1661  1517      0   0   0
  1661  1529      0   0   0
  1661  1649      0   0   0
  1661  1673      0   0   0
  1661    65      1   0   0
  1661    77      1   0   0
  1662  1661      0   0   0
  1662  1663      0   0   0
  1662  1518      0   0   0
  1662  1530      0   0   0
  1662  1650      0   0   0
  1662  1674      0   0   0
  1662    66      1   0   0
  1662    78      1   0   0
  1663  1662      0   0   0
  1663  1664      0   0   0
  1663  1519      0   0   0
  1663  1531      0   0   0
  1663  1651      0   0   0
  1663  1675      0   0   0
  1663    67      1   0   0
  1663    79      1   0   0
  1664  1663      0   0   0
  1664  1665      0   0   0
  1664  1520      0   0   0
  1664  1532      0   0   0
  1664  1652      0   0   0
  1664  1676      0   0   0
  1664    68      1   0   0
  1664    80      1   0   0
  1665  1664      0   0   0
  1665  1666      0   0   0
  1665  1521      0   0   0
  1665  1533      0   0   0
  1665  1653      0   0   0
  1665  1677      0   0   0
  1665    69      1   0   0
  1665    81      1   0   0
  1666  1665      0   0   0
  1666  1667      0   0   0
  1666  1522      0   0   0
  1666  1534      0   0   0
  1666  1654      0   0   0
  1666  1678      0   0   0
  1666    70      1   0   0
  1666    82      1   0   0
  1667  1666      0   0   0
  1667  1668      0   0   0
  1667  1523      0   0   0
  1667  1535      0   0   0
  1667  1655      0   0   0
  1667  1679      0   0   0
  1667    71      1   0   0
  1667    83      1   0   0
  1668  1667      0   0   0
  1668  1657      0   0   1
  1668  1524      0   0   0
  1668  1536      0   0   0
  1668  1656      0   0   0
  1668  1680      0   0   0
  1668    72      1   0   0
  1668    84      1   0   0
  1669  1670      0   0   0
  1669  1680      0   0  -1
  1669  1525      0   0   0
  1669  1537      0   0   0
  1669  1657      0   0   0
  1669  1681      0   0   0
  1669    73      1   0   0
  1669    85      1   0   0
  1670  1669      0   0   0
  1670  1671      0   0   0
  1670  1526      0   0   0
  1670  1538      0   0   0
  1670  1658      0   0   0
  1670  1682      0   0   0
  1670    74      1   0   0
  1670    86      1   0   0
  1671  1670      0   0   0
  1671  1672      0   0   0
  1671  1527      0   0   0
  1671  1539      0   0   0
  1671  1659      0   0   0
  1671  1683      0   0   0
  1671    75      1   0   0
  1671    87      1   0   0
  1672  1671      0   0   0
  1672  1673      0   0   0
  1672  1528      0   0   0
  1672  1540      0   0   0
  1672  1660      0   0   0
  1672  1684      0   0   0
  1672    76      1   0   0
  1672    88      1   0   0
  1673  1672      0   0   0
  1673  1674      0   0   0
  1673  1529      0   0   0
  1673  1541      0   0   0
  1673  1661      0   0   0
  1673  1685      0   0   0
  1673    77      1   0   0
  1673    89      1   0   0
  1674  1673      0   0   0
  1674  1675      0   0   0
  1674  1530      0   0   0
  1674  1542      0   0   0
  1674  1662      0   0   0
  1674  1686      0   0   0
  1674    78      1   0   0
  1674    90      1   0   0
  1675  1674      0   0   0
  1675  1676      0   0   0
  1675  1531      0   0   0
  1675  1543      0   0   0
  1675  1663      0   0   0
  1675  1687      0   0   0
  1675    79      1   0   0
  1675    91      1   0   0
  1676  1675      0   0   0
  1676  1677      0   0   0
  1676  1532      0   0   0
  1676  1544      0   0   0
  1676  1664      0   0   0
  1676  1688      0   0   0
  1676    80      1   0   0
  1676    92      1   0   0
  1677  1676      0   0   0
  1677  1678      0   0   0
  1677  1533      0   0   0
  1677  1545      0   0   0
  1677  1665      0   0   0
  1677  1689      0   0   0
  1677    81      1   0   0
  1677    93      1   0   0
  1678  1677      0   0   0
  1678  1679      0   0   0
  1678  1534      0   0   0
  1678  1546      0   0   0
  1678  1666      0   0   0
  1678  1690      0   0   0
  1678    82      1   0   0
  1678    94      1   0   0
  1679  1678      0   0   0
  1679  1680      0   0   0
  1679  1535      0   0   0
  1679  1547      0   0   0
  1679  1667      0   0   0
  1679  1691      0   0   0
  1679    83      1   0   0
  1679    95      1   0   0
  1680  1679      0   0   0
  1680  1669      0   0   1
  1680  1536      0   0   0
  1680  1548      0   0   0
  1680  1668      0   0   0
  1680  1692      0   0   0
  1680    84      1   0   0
  1680    96      1   0   0
  1681  1682      0   0   0
  1681  1692      0   0  -1
  1681  1537      0   0   0
  1681  1549      0   0   0
  1681  1669      0   0   0
  1681  1693      0   0   0
  1681    85      1   0   0
  1681    97      1   0   0
  1682  1681      0   0   0
  1682  1683      0   0   0
  1682  1538      0   0   0
  1682  1550      0   0   0
  1682  1670      0   0   0
  1682  1694      0   0   0
  1682    86      1   0   0
  1682    98      1   0   0
  1683  1682      0   0   0
  1683  1684      0   0   0
  1683  1539      0   0   0
  1683  1551      0   0   0
  1683  1671      0   0   0
  1683  1695      0   0   0
  1683    87      1   0   0
  1683    99      1   0   0
  1684  1683      0   0   0
  1684  1685      0   0   0
  1684  1540      0   0   0
  1684  1552      0   0   0
  1684  1672      0   0   0
  1684  1696      0   0   0
  1684    88      1   0   0
  1684   100      1   0   0
  1685  1684      0   0   0
  1685  1686      0   0   0
  1685  1541      0   0   0
  1685  1553      0   0   0
  1685  1673      0   0   0
  1685  1697      0   0   0
  1685    89      1   0   0
  1685   101      1   0   0
  1686  1685      0   0   0
  1686  1687      0   0   0
  1686  1542      0   0   0
  1686  1554      0   0   0
  1686  1674      0   0   0
  1686  1698      0   0   0
  1686    90      1   0   0
  1686   102      1   0   0
  1687  1686      0   0   0
  1687  1688      0   0   0
  1687  1543      0   0   0
  1687  1555      0   0   0
  1687  1675      0   0   0
  1687  1699      0   0   0
  1687    91      1   0   0
  1687   103      1   0   0
  1688  1687      0   0   0
  1688  1689      0   0   0
  1688  1544      0   0   0
  1688  1556      0   0   0
  1688  1676      0   0   0
  1688  1700      0   0   0
  1688    92      1   0   0
  1688   104      1   0   0
  1689  1688      0   0   0
  1689  1690      0   0   0
  1689  1545      0   0   0
  1689  1557      0   0   0
  1689  1677      0   0   0
  1689  1701      0   0   0
  1689    93      1   0   0
  1689   105      1   0   0
  1690  1689      0   0   0
  1690  1691      0   0   0
  1690  1546      0   0   0
  1690  1558      0   0   0
  1690  1678      0   0   0
  1690  1702      0   0   0
  1690    94      1   0   0
  1690   106      1   0   0
  1691  1690      0   0   0
  1691  1692      0   0   0
  1691  1547      0   0   0
  1691  1559      0   0   0
  1691  1679      0   0   0
  1691  1703      0   0   0
  1691    95      1   0   0
  1691   107      1   0   0
  1692  1691      0   0   0
  1692  1681      0   0   1
  1692  1548      0   0   0
  1692  1560      0   0   0
  1692  1680      0   0   0
  1692  1704      0   0   0
  1692    96      1   0   0
  1692   108      1   0   0
  1693  1694      0   0   0
  1693  1704      0   0  -1
  1693  1549      0   0   0
  1693  1561      0   0   0
  1693  1681      0   0   0
  1693  1705      0   0   0
  1693    97      1   0   0
  1693   109      1   0   0
  1694  1693      0   0   0
  1694  1695      0   0   0
  1694  1550      0   0   0
  1694  1562      0   0   0
  1694  1682      0   0   0
  1694  1706      0   0   0
  1694    98      1   0   0
  1694   110      1   0   0
  1695  1694      0   0   0
  1695  1696      0   0   0
  1695  1551      0   0   0
  1695  1563      0   0   0
  1695  1683      0   0   0
  1695  1707      0   0   0
  1695    99      1   0   0
  1695   111      1   0   0
  1696  1695      0   0   0
  1696  1697      0   0   0
  1696  1552      0   0   0
  1696  1564      0   0   0
  1696  1684      0   0   0
  1696  1708      0   0   0
  1696   100      1   0   0
  1696   112      1   0   0
  1697  1696      0   0   0
  1697  1698      0   0   0
  1697  1553      0   0   0
  1697  1565      0   0   0
  1697  1685      0   0   0
  1697  1709      0   0   0
  1697   101      1   0   0
  1697   113      1   0   0
  1698  1697      0   0   0
  1698  1699      0   0   0
  1698  1554      0   0   0
  1698  1566      0   0   0
  1698  1686      0   0   0
  1698  1710      0   0   0
  1698   102      1   0   0
  1698   114      1   0   0
  1699  1698      0   0   0
  1699  1700      0   0   0
  1699  1555      0   0   0
  1699  1567      0   0   0
  1699  1687      0   0   0
  1699  1711      0   0   0
  1699   103      1   0   0
  1699   115      1   0   0
  1700  1699      0   0   0
  1700  1701      0   0   0
  1700  1556      0   0   0
  1700  1568      0   0   0
  1700  1688      0   0   0
  1700  1712      0   0   0
  1700   104      1   0   0
  1700   116      1   0   0
  1701  1700      0   0   0
  1701  1702      0   0   0
  1701  1557      0   0   0
  1701  1569      0   0   0
  1701  1689      0   0   0
  1701  1713      0   0   0
  1701   105      1   0   0
  1701   117      1   0   0
  1702  1701      0   0   0
  1702  1703      0   0   0
  1702  1558      0   0   0
  1702  1570      0   0   0
  1702  1690      0   0   0
  1702  1714      0   0   0
  1702   106      1   0   0
  1702   118      1   0   0
  1703  1702      0   0   0
  1703  1704      0   0   0
  1703  1559      0   0   0
  1703  1571      0   0   0
  1703  1691      0   0   0
  1703  1715      0   0   0
  1703   107      1   0   0
  1703   119      1   0   0
  1704  1703      0   0   0
  1704  1693      0   0   1
  1704  1560      0   0   0
  1704  1572      0   0   0
  1704  1692      0   0   0
  1704  1716      0   0   0
  1704   108      1   0   0
  1704   120      1   0   0
  1705  1706      0   0   0
  1705  1716      0   0  -1
  1705  1561      0   0   0
  1705  1573      0   0   0
  1705  1693      0   0   0
  1705  1717      0   0   0
  1705   109      1   0   0
  1705   121      1   0   0
  1706  1705      0   0   0
  1706  1707      0   0   0
  1706  1562      0   0   0
  1706  1574      0   0   0
  1706  1694      0   0   0
  1706  1718      0   0   0
  1706   110      1   0   0
  1706   122      1   0   0
  1707  1706      0   0   0
  1707  1708      0   0   0
  1707  1563      0   0   0
  1707  1575      0   0   0
  1707  1695      0   0   0
  1707  1719      0   0   0
  1707   111      1   0   0
  1707   123      1   0   0
  1708  1707      0   0   0
  1708  1709      0   0   0
  1708  1564      0   0   0
  1708  1576      0   0   0
  1708  1696      0   0   0
  1708  1720      0   0   0
  1708   112      1   0   0
  1708   124      1   0   0
  1709  1708      0   0   0
  1709  1710      0   0   0
  1709  1565      0   0   0
  1709  1577      0   0   0
  1709  1697      0   0   0
  1709  1721      0   0   0
  1709   113      1   0   0
  1709   125      1   0   0
  1710  1709      0   0   0
  1710  1711      0   0   0
  1710  1566      0   0   0
  1710  1578      0   0   0
  1710  1698      0   0   0
  1710  1722      0   0   0
  1710   114      1   0   0
  1710   126      1   0   0
  1711  1710      0   0   0
  1711  1712      0   0   0
  1711  1567      0   0   0
  1711  1579      0   0   0
  1711  1699      0   0   0
  1711  1723      0   0   0
  1711   115      1   0   0
  1711   127      1   0   0
  1712  1711      0   0   0
  1712  1713      0   0   0
  1712  1568      0   0   0
  1712  1580      0   0   0
  1712  1700      0   0   0
  1712  1724      0   0   0
  1712   116      1   0   0
  1712   128      1   0   0
  1713  1712      0   0   0
  1713  1714      0   0   0
  1713  1569      0   0   0
  1713  1581      0   0   0
  1713  1701      0   0   0
  1713  1725      0   0   0
  1713   117      1   0   0
  1713   129      1   0   0
  1714  1713      0   0   0
  1714  1715      0   0   0
  1714  1570      0   0   0
  1714  1582      0   0   0
  1714  1702      0   0   0
  1714  1726      0   0   0
  1714   118      1   0   0
  1714   130      1   0   0
  1715  1714      0   0   0
  1715  1716      0   0   0
  1715  1571      0   0   0
  1715  1583      0   0   0
  1715  1703      0   0   0
  1715  1727      0   0   0
  1715   119      1   0   0
  1715   131      1   0   0
  1716  1715      0   0   0
  1716  1705      0   0   1
  1716  1572      0   0   0
  1716  1584      0   0   0
  1716  1704      0   0   0
  1716  1728      0   0   0
  1716   120      1   0   0
  1716   132      1   0   0
  1717  1718      0   0   0
  1717  1728      0   0  -1
  1717  1573      0   0   0
  1717  1705      0   0   0
  1717   121      1   0   0
  1717   133      1   0   0
  1717  1441      0   1   0
  1717  1585      0   1   0
  1718  1717      0   0   0
  1718  1719      0   0   0
  1718  1574      0   0   0
  1718  1706      0   0   0
  1718   122      1   0   0
  1718   134      1   0   0
  1718  1442      0   1   0
  1718  1586      0   1   0
  1719  1718      0   0   0
  1719  1720      0   0   0
  1719  1575      0   0   0
  1719  1707      0   0   0
  1719   123      1   0   0
  1719   135      1   0   0
  1719  1443      0   1   0
  1719  1587      0   1   0
  1720  1719      0   0   0
  1720  1721      0   0   0
  1720  1576      0   0   0
  1720  1708      0   0   0
  1720   124      1   0   0
  1720   136      1   0   0
  1720  1444      0   1   0
  1720  1588      0   1   0
  1721  1720      0   0   0
  1721  1722      0   0   0
  1721  1577      0   0   0
  1721  1709      0   0   0
  1721   125      1   0   0
  1721   137      1   0   0
  1721  1445      0   1   0
  1721  1589      0   1   0
  1722  1721      0   0   0
  1722  1723      0   0   0
  1722  1578      0   0   0
  1722  1710      0   0   0
  1722   126      1   0   0
  1722   138      1   0   0
  1722  1446      0   1   0
  1722  1590      0   1   0
  1723  1722      0   0   0
  1723  1724      0   0   0
  1723  1579      0   0   0
  1723  1711      0   0   0
  1723   127      1   0   0
  1723   139      1   0   0
  1723  1447      0   1   0
  1723  1591      0   1   0
  1724  1723      0   0   0
  1724  1725      0   0   0
  1724  1580      0   0   0
  1724  1712      0   0   0
  1724   128      1   0   0
  1724   140      1   0   0
  1724  1448      0   1   0
  1724  1592      0   1   0
  1725  1724      0   0   0
  1725  1726      0   0   0
  1725  1581      0   0   0
  1725  1713      0   0   0
  1725   129      1   0   0
  1725   141      1   0   0
  1725  1449      0   1   0
  1725  1593      0   1   0
  1726  1725      0   0   0
  1726  1727      0   0   0
  1726  1582      0   0   0
  1726  1714      0   0   0
  1726   130      1   0   0
  1726   142      1   0   0
  1726  1450      0   1   0
  1726  1594      0   1   0
  1727  1726      0   0   0
  1727  1728      0   0   0
  1727  1583      0   0   0
  1727  1715      0   0   0
  1727   131      1   0   0
  1727   143      1   0   0
  1727  1451      0   1   0
  1727  1595      0   1   0
  1728  1727      0   0   0
  1728  1717      0   0   1
  1728  1584      0   0   0
  1728  1716      0   0   0
  1728   132      1   0   0
  1728   144      1   0   0
  1728  1452      0   1   0
  1728  1596      0   1   0
end nnkpts

begin exclude_bands
   0
end exclude_bands
